ITEM: TIMESTEP
0
ITEM: NUMBER OF ATOMS
1000
ITEM: BOX BOUNDS xy xz yz pp pp pp
                     -9.82710814586383e-01 1.35502710814587e+02 0.00000000000000e+00
-9.82710814586383e-01	1.35502710814587e+02	0.00000000000000e+00
-9.82710814586383e-01	1.35502710814587e+02	0.00000000000000e+00
ITEM: ATOMS id type x y z p1 p2 p3
1 2 -7.289e-01 -7.769e-01 -7.305e-01 0.34 0.33 0.33
2 3 9.089e-01 8.645e-01 -7.391e-01 0.34 0.33 0.33
3 2 1.203e+00 -7.194e-01 1.153e+00 0.34 0.33 0.33
4 2 -5.884e-01 1.140e+00 1.360e+00 0.33 0.33 0.34
5 3 3.061e+00 -7.658e-01 -7.049e-01 0.33 0.33 0.34
6 2 4.775e+00 1.118e+00 -5.723e-01 0.34 0.33 0.33
7 1 4.783e+00 -7.102e-01 1.145e+00 0.34 0.33 0.34
8 2 2.948e+00 9.751e-01 9.645e-01 0.33 0.33 0.34
9 1 6.638e+00 -8.050e-01 -4.543e-01 0.34 0.33 0.33
10 1 8.315e+00 1.202e+00 -7.377e-01 0.34 0.32 0.34
11 3 8.541e+00 -6.711e-01 1.436e+00 0.34 0.32 0.34
12 3 6.705e+00 9.146e-01 1.254e+00 0.34 0.32 0.34
13 1 1.022e+01 -6.293e-01 -6.269e-01 0.34 0.32 0.34
14 3 1.191e+01 9.808e-01 -4.597e-01 0.34 0.32 0.34
15 3 1.201e+01 -5.895e-01 1.192e+00 0.34 0.32 0.33
16 2 9.850e+00 1.041e+00 1.126e+00 0.34 0.32 0.34
17 2 1.385e+01 -6.568e-01 -6.319e-01 0.34 0.32 0.33
18 3 1.563e+01 9.537e-01 -5.289e-01 0.35 0.33 0.33
19 1 1.559e+01 -8.235e-01 1.267e+00 0.35 0.32 0.33
20 1 1.373e+01 1.019e+00 1.244e+00 0.34 0.32 0.33
21 2 1.734e+01 -7.303e-01 -6.704e-01 0.34 0.33 0.33
22 3 1.893e+01 1.027e+00 -4.786e-01 0.35 0.32 0.33
23 2 1.897e+01 -7.161e-01 1.188e+00 0.35 0.32 0.33
24 2 1.710e+01 1.100e+00 1.062e+00 0.35 0.32 0.33
25 2 2.093e+01 -8.380e-01 -7.151e-01 0.34 0.32 0.33
26 3 2.277e+01 1.106e+00 -7.393e-01 0.34 0.33 0.33
27 3 2.259e+01 -3.752e-01 1.077e+00 0.35 0.32 0.33
28 2 2.080e+01 1.201e+00 1.105e+00 0.35 0.32 0.33
29 1 2.446e+01 -6.840e-01 -6.865e-01 0.34 0.33 0.33
30 1 2.636e+01 1.077e+00 -6.873e-01 0.34 0.33 0.33
31 2 2.608e+01 -6.861e-01 1.097e+00 0.35 0.33 0.32
32 3 2.448e+01 1.015e+00 1.059e+00 0.34 0.33 0.32
33 3 2.812e+01 -7.263e-01 -6.291e-01 0.34 0.33 0.33
34 3 3.007e+01 1.067e+00 -5.655e-01 0.34 0.33 0.34
35 3 2.994e+01 -8.540e-01 1.376e+00 0.34 0.33 0.33
36 1 2.809e+01 1.131e+00 1.027e+00 0.34 0.33 0.33
37 2 3.160e+01 -7.266e-01 -6.883e-01 0.33 0.33 0.33
38 1 3.356e+01 1.221e+00 -5.096e-01 0.33 0.32 0.34
39 3 3.352e+01 -8.372e-01 1.054e+00 0.34 0.33 0.34
40 3 3.169e+01 9.165e-01 1.085e+00 0.34 0.33 0.33
41 2 3.509e+01 -7.329e-01 -6.849e-01 0.34 0.32 0.34
42 2 3.718e+01 1.045e+00 -6.272e-01 0.33 0.33 0.34
43 1 3.687e+01 -7.867e-01 1.219e+00 0.33 0.33 0.34
44 3 3.532e+01 1.106e+00 1.077e+00 0.33 0.33 0.34
45 2 3.900e+01 -6.858e-01 -4.395e-01 0.34 0.33 0.33
46 2 4.064e+01 1.388e+00 -4.617e-01 0.33 0.34 0.33
47 2 4.072e+01 -7.653e-01 1.194e+00 0.34 0.34 0.33
48 2 3.876e+01 1.121e+00 1.036e+00 0.33 0.33 0.34
49 2 4.263e+01 -6.026e-01 -5.049e-01 0.33 0.34 0.33
50 3 4.431e+01 1.196e+00 -5.233e-01 0.34 0.34 0.32
51 1 4.440e+01 -6.172e-01 1.226e+00 0.33 0.34 0.33
52 1 4.237e+01 1.073e+00 1.168e+00 0.34 0.33 0.33
53 1 4.584e+01 -7.943e-01 -5.520e-01 0.33 0.35 0.32
54 3 4.781e+01 1.466e+00 -4.784e-01 0.33 0.35 0.32
55 1 4.791e+01 -8.399e-01 1.153e+00 0.34 0.35 0.32
56 1 4.627e+01 9.956e-01 1.305e+00 0.34 0.34 0.32
57 2 4.964e+01 -7.986e-01 -5.962e-01 0.33 0.35 0.32
58 3 5.151e+01 1.036e+00 -7.142e-01 0.33 0.35 0.32
59 3 5.130e+01 -2.479e-01 1.165e+00 0.33 0.35 0.32
60 3 4.963e+01 1.425e+00 1.150e+00 0.33 0.35 0.32
61 2 5.326e+01 -6.423e-01 -4.832e-01 0.33 0.35 0.32
62 1 5.502e+01 1.181e+00 -3.928e-01 0.34 0.35 0.32
63 1 5.499e+01 -6.361e-01 1.274e+00 0.33 0.35 0.32
64 1 5.335e+01 1.114e+00 1.430e+00 0.33 0.35 0.32
65 3 5.665e+01 -6.377e-01 -8.345e-01 0.33 0.35 0.32
66 3 5.857e+01 1.062e+00 -4.635e-01 0.33 0.35 0.32
67 2 5.858e+01 -6.131e-01 1.151e+00 0.33 0.35 0.32
68 1 5.684e+01 1.249e+00 1.213e+00 0.34 0.34 0.32
69 3 6.054e+01 -8.548e-01 -6.424e-01 0.33 0.34 0.32
70 2 6.229e+01 1.365e+00 -6.767e-01 0.34 0.34 0.32
71 2 6.210e+01 -6.034e-01 9.783e-01 0.33 0.35 0.32
72 1 6.045e+01 1.083e+00 1.170e+00 0.33 0.35 0.32
73 2 6.402e+01 -4.487e-01 -6.253e-01 0.33 0.35 0.32
74 1 6.575e+01 1.177e+00 -7.388e-01 0.33 0.34 0.33
75 1 6.608e+01 -3.444e-01 1.223e+00 0.33 0.35 0.32
76 2 6.403e+01 1.136e+00 9.935e-01 0.33 0.35 0.32
77 3 6.769e+01 -6.740e-01 -8.021e-01 0.33 0.35 0.32
78 2 6.937e+01 1.123e+00 -7.942e-01 0.33 0.35 0.32
79 3 6.940e+01 -5.063e-01 1.057e+00 0.33 0.34 0.33
80 2 6.777e+01 1.279e+00 1.006e+00 0.33 0.35 0.32
81 3 7.109e+01 -7.455e-01 -9.173e-01 0.33 0.35 0.32
82 2 7.306e+01 1.181e+00 -6.913e-01 0.33 0.35 0.33
83 1 7.279e+01 -6.397e-01 1.308e+00 0.32 0.35 0.32
84 1 7.122e+01 1.046e+00 1.067e+00 0.32 0.35 0.33
85 2 7.466e+01 -6.090e-01 -5.341e-02 0.32 0.35 0.33
86 1 7.640e+01 1.241e+00 -7.350e-01 0.33 0.34 0.33
87 1 7.675e+01 -5.696e-01 1.059e+00 0.32 0.35 0.33
88 2 7.494e+01 1.447e+00 1.300e+00 0.32 0.35 0.33
89 2 7.856e+01 -5.690e-01 -6.691e-01 0.33 0.34 0.33
90 1 8.036e+01 1.282e+00 -5.339e-01 0.33 0.34 0.33
91 3 8.035e+01 -6.318e-01 1.291e+00 0.33 0.35 0.32
92 1 7.855e+01 1.235e+00 1.016e+00 0.32 0.35 0.33
93 3 8.212e+01 -6.570e-01 -5.156e-01 0.33 0.34 0.33
94 2 8.377e+01 1.218e+00 -7.227e-01 0.34 0.34 0.33
95 1 8.374e+01 -7.694e-01 1.131e+00 0.33 0.34 0.32
96 1 8.215e+01 1.166e+00 1.069e+00 0.33 0.34 0.33
97 2 8.561e+01 -3.439e-01 -6.377e-01 0.34 0.33 0.33
98 1 8.747e+01 1.318e+00 -5.381e-01 0.33 0.34 0.33
99 1 8.735e+01 -4.613e-01 1.218e+00 0.33 0.34 0.33
100 1 8.557e+01 1.252e+00 1.233e+00 0.33 0.34 0.33
101 2 8.913e+01 -4.126e-01 -6.268e-01 0.34 0.33 0.33
102 2 9.074e+01 1.331e+00 -6.319e-01 0.34 0.33 0.33
103 1 9.078e+01 -5.035e-01 1.173e+00 0.34 0.33 0.33
104 3 8.923e+01 1.391e+00 1.453e+00 0.33 0.34 0.33
105 1 9.287e+01 -4.611e-01 -5.294e-01 0.34 0.33 0.33
106 1 9.471e+01 1.015e+00 -6.544e-01 0.34 0.34 0.33
107 1 9.438e+01 -6.631e-01 1.314e+00 0.34 0.34 0.33
108 2 9.275e+01 1.314e+00 1.244e+00 0.34 0.34 0.33
109 2 9.625e+01 -7.935e-01 -5.349e-01 0.34 0.34 0.33
110 3 9.813e+01 1.024e+00 -5.530e-01 0.34 0.33 0.33
111 1 9.810e+01 -7.030e-01 1.148e+00 0.33 0.34 0.32
112 1 9.636e+01 9.979e-01 1.120e+00 0.34 0.34 0.32
113 2 1.001e+02 -6.577e-01 -6.769e-01 0.34 0.33 0.33
114 2 1.018e+02 1.347e+00 -7.017e-01 0.34 0.33 0.33
115 2 1.019e+02 -5.577e-01 1.242e+00 0.34 0.34 0.32
116 3 9.998e+01 1.137e+00 1.191e+00 0.34 0.34 0.33
117 2 1.036e+02 -3.474e-01 -7.683e-01 0.33 0.34 0.33
118 1 1.054e+02 1.304e+00 -7.208e-01 0.33 0.34 0.33
119 3 1.053e+02 -4.714e-01 1.239e+00 0.33 0.34 0.33
120 3 1.034e+02 1.356e+00 9.207e-01 0.33 0.34 0.33
121 2 1.071e+02 -6.611e-01 -7.678e-01 0.33 0.33 0.33
122 2 1.090e+02 1.362e+00 -6.973e-01 0.33 0.34 0.33
123 1 1.088e+02 -6.709e-01 9.549e-01 0.33 0.34 0.33
124 2 1.070e+02 1.213e+00 1.180e+00 0.32 0.34 0.34
125 1 1.108e+02 -6.678e-01 -7.770e-01 0.33 0.34 0.33
126 3 1.124e+02 1.010e+00 -6.429e-01 0.33 0.34 0.33
127 3 1.126e+02 -6.060e-01 1.157e+00 0.33 0.34 0.33
128 1 1.106e+02 1.143e+00 1.159e+00 0.33 0.34 0.33
129 3 1.144e+02 -4.953e-01 -7.516e-01 0.33 0.34 0.33
130 1 1.161e+02 1.255e+00 -6.716e-01 0.33 0.34 0.33
131 2 1.160e+02 -4.812e-01 1.479e+00 0.33 0.33 0.33
132 2 1.144e+02 1.225e+00 1.074e+00 0.33 0.34 0.33
133 2 1.178e+02 -7.116e-01 -5.619e-01 0.33 0.34 0.34
134 1 1.196e+02 1.270e+00 -6.792e-01 0.34 0.33 0.33
135 2 1.196e+02 -4.911e-01 1.241e+00 0.33 0.33 0.34
136 1 1.177e+02 1.139e+00 9.946e-01 0.33 0.33 0.34
137 3 1.213e+02 -4.900e-01 -5.173e-01 0.33 0.33 0.34
138 1 1.233e+02 1.207e+00 -5.706e-01 0.33 0.33 0.33
139 1 1.232e+02 -4.664e-01 1.073e+00 0.33 0.33 0.34
140 1 1.214e+02 1.373e+00 1.150e+00 0.34 0.33 0.34
141 3 1.251e+02 -7.378e-01 -5.853e-01 0.34 0.33 0.33
142 3 1.268e+02 9.887e-01 -5.345e-01 0.33 0.33 0.33
143 2 1.268e+02 -4.439e-01 1.233e+00 0.33 0.33 0.33
144 2 1.250e+02 1.361e+00 1.160e+00 0.34 0.33 0.33
145 2 1.288e+02 -5.090e-01 -7.185e-01 0.34 0.33 0.34
146 2 1.306e+02 1.223e+00 -8.432e-01 0.34 0.33 0.34
147 2 1.303e+02 -5.545e-01 1.190e+00 0.34 0.33 0.33
148 3 1.287e+02 1.168e+00 9.270e-01 0.34 0.33 0.33
149 2 1.322e+02 -5.494e-01 -4.097e-01 0.34 0.33 0.33
150 3 1.341e+02 1.196e+00 -4.787e-01 0.34 0.33 0.33
151 1 1.338e+02 -4.877e-01 1.359e+00 0.34 0.33 0.33
152 3 1.320e+02 1.188e+00 1.361e+00 0.34 0.33 0.33
153 2 -7.836e-01 3.035e+00 -4.896e-01 0.33 0.33 0.34
154 1 1.124e+00 4.728e+00 -6.820e-01 0.33 0.34 0.33
155 1 1.063e+00 2.821e+00 1.344e+00 0.33 0.34 0.33
156 3 -8.059e-01 4.755e+00 1.239e+00 0.33 0.33 0.34
157 1 2.790e+00 2.934e+00 -6.110e-01 0.33 0.34 0.33
158 1 4.629e+00 4.679e+00 -5.565e-01 0.33 0.34 0.33
159 1 4.819e+00 2.876e+00 1.086e+00 0.34 0.33 0.33
160 3 2.821e+00 4.601e+00 1.073e+00 0.33 0.34 0.34
161 1 6.667e+00 3.002e+00 -5.187e-01 0.33 0.33 0.34
162 1 8.392e+00 4.731e+00 -5.992e-01 0.33 0.33 0.34
163 1 8.245e+00 2.931e+00 1.113e+00 0.34 0.32 0.34
164 1 6.476e+00 4.675e+00 1.195e+00 0.33 0.33 0.33
165 1 1.035e+01 2.928e+00 -5.895e-01 0.34 0.33 0.33
166 1 1.192e+01 4.653e+00 -4.983e-01 0.34 0.33 0.33
167 1 1.190e+01 2.841e+00 1.237e+00 0.34 0.33 0.33
168 2 1.020e+01 4.714e+00 1.246e+00 0.34 0.33 0.33
169 1 1.380e+01 2.832e+00 -6.180e-01 0.34 0.33 0.33
170 1 1.552e+01 4.687e+00 -6.366e-01 0.34 0.33 0.33
171 2 1.544e+01 2.894e+00 1.022e+00 0.35 0.32 0.33
172 1 1.353e+01 4.440e+00 1.309e+00 0.34 0.33 0.33
173 3 1.731e+01 3.285e+00 -5.229e-01 0.34 0.32 0.33
174 3 1.909e+01 4.851e+00 -3.623e-01 0.34 0.32 0.34
175 3 1.907e+01 2.824e+00 1.224e+00 0.34 0.33 0.33
176 3 1.708e+01 4.809e+00 1.381e+00 0.34 0.32 0.33
177 3 2.112e+01 3.156e+00 -4.723e-01 0.34 0.33 0.33
178 1 2.283e+01 4.710e+00 -6.752e-01 0.34 0.33 0.33
179 1 2.301e+01 2.877e+00 1.075e+00 0.34 0.33 0.33
180 2 2.063e+01 4.906e+00 1.216e+00 0.34 0.33 0.33
181 2 2.444e+01 3.017e+00 -8.284e-01 0.34 0.32 0.33
182 3 2.616e+01 4.762e+00 -6.204e-01 0.34 0.32 0.34
183 1 2.633e+01 2.933e+00 1.032e+00 0.34 0.32 0.33
184 1 2.451e+01 4.668e+00 1.252e+00 0.34 0.33 0.33
185 3 2.803e+01 2.821e+00 -6.376e-01 0.34 0.32 0.33
186 1 2.983e+01 4.709e+00 -7.944e-01 0.34 0.32 0.34
187 3 2.972e+01 3.115e+00 9.249e-01 0.34 0.33 0.33
188 2 2.805e+01 4.904e+00 1.032e+00 0.34 0.33 0.34
189 2 3.152e+01 2.872e+00 -6.378e-01 0.34 0.32 0.34
190 3 3.335e+01 4.616e+00 -7.279e-01 0.33 0.33 0.34
191 1 3.348e+01 2.957e+00 1.084e+00 0.33 0.33 0.34
192 2 3.159e+01 4.439e+00 9.038e-01 0.34 0.32 0.34
193 2 3.525e+01 3.012e+00 -7.663e-01 0.33 0.33 0.34
194 3 3.697e+01 4.661e+00 -7.223e-01 0.33 0.33 0.34
195 1 3.688e+01 2.882e+00 1.239e+00 0.33 0.33 0.34
196 1 3.521e+01 4.840e+00 1.038e+00 0.33 0.33 0.34
197 2 3.851e+01 2.846e+00 -6.343e-01 0.33 0.33 0.34
198 3 4.044e+01 4.709e+00 -5.840e-01 0.33 0.33 0.33
199 2 4.055e+01 3.148e+00 1.151e+00 0.33 0.33 0.33
200 3 3.863e+01 4.666e+00 1.117e+00 0.34 0.33 0.33
201 3 4.240e+01 2.965e+00 -4.920e-01 0.33 0.34 0.33
202 1 4.408e+01 4.974e+00 -7.358e-01 0.34 0.34 0.32
203 2 4.429e+01 3.010e+00 1.110e+00 0.33 0.34 0.33
204 2 4.239e+01 4.819e+00 1.147e+00 0.33 0.34 0.33
205 3 4.599e+01 3.162e+00 -4.564e-01 0.33 0.34 0.32
206 2 4.788e+01 4.552e+00 -6.852e-01 0.34 0.34 0.32
207 1 4.765e+01 3.109e+00 1.350e+00 0.34 0.34 0.32
208 3 4.613e+01 4.938e+00 1.118e+00 0.34 0.34 0.32
209 2 4.988e+01 2.999e+00 -6.953e-01 0.33 0.35 0.32
210 2 5.146e+01 4.856e+00 -3.929e-01 0.34 0.35 0.32
211 1 5.131e+01 3.124e+00 1.113e+00 0.33 0.35 0.32
212 2 4.958e+01 4.803e+00 1.362e+00 0.34 0.34 0.32
213 3 5.319e+01 2.960e+00 -4.702e-01 0.33 0.34 0.32
214 2 5.509e+01 4.982e+00 -5.355e-01 0.33 0.35 0.32
215 1 5.512e+01 3.047e+00 1.122e+00 0.33 0.35 0.32
216 3 5.339e+01 4.674e+00 1.225e+00 0.33 0.35 0.32
217 3 5.690e+01 2.800e+00 -6.498e-01 0.33 0.35 0.32
218 1 5.848e+01 4.688e+00 -7.436e-01 0.33 0.35 0.32
219 2 5.868e+01 2.792e+00 1.057e+00 0.33 0.35 0.32
220 2 5.692e+01 4.920e+00 9.401e-01 0.34 0.35 0.31
221 3 6.067e+01 3.364e+00 -6.278e-01 0.33 0.35 0.32
222 2 6.234e+01 4.957e+00 -4.092e-01 0.33 0.35 0.32
223 3 6.216e+01 2.906e+00 1.271e+00 0.33 0.35 0.32
224 2 6.049e+01 4.751e+00 1.079e+00 0.33 0.35 0.32
225 3 6.395e+01 2.997e+00 -7.942e-01 0.33 0.34 0.32
226 1 6.582e+01 4.518e+00 -7.350e-01 0.33 0.34 0.33
227 2 6.583e+01 2.765e+00 9.998e-01 0.33 0.35 0.32
228 1 6.436e+01 4.644e+00 1.081e+00 0.33 0.35 0.32
229 3 6.774e+01 2.663e+00 -5.973e-01 0.33 0.35 0.32
230 3 6.934e+01 4.745e+00 -7.322e-01 0.33 0.35 0.32
231 2 6.971e+01 3.003e+00 9.607e-01 0.32 0.35 0.33
232 1 6.781e+01 4.623e+00 9.732e-01 0.33 0.35 0.32
233 3 7.111e+01 2.776e+00 -7.695e-01 0.33 0.35 0.32
234 1 7.294e+01 4.603e+00 -5.243e-01 0.33 0.35 0.32
235 1 7.298e+01 2.957e+00 1.107e+00 0.32 0.35 0.32
236 1 7.121e+01 4.741e+00 1.012e+00 0.33 0.35 0.32
237 2 7.483e+01 2.975e+00 -5.917e-01 0.33 0.35 0.32
238 2 7.649e+01 4.880e+00 -5.729e-01 0.33 0.34 0.32
239 3 7.659e+01 3.074e+00 1.049e+00 0.33 0.35 0.33
240 3 7.470e+01 4.539e+00 1.155e+00 0.32 0.35 0.32
241 3 7.812e+01 3.087e+00 -5.272e-01 0.33 0.34 0.33
242 1 8.025e+01 4.927e+00 -5.407e-01 0.33 0.34 0.33
243 1 8.009e+01 3.229e+00 1.329e+00 0.32 0.34 0.33
244 1 7.815e+01 4.788e+00 1.167e+00 0.33 0.34 0.33
245 3 8.208e+01 3.026e+00 -5.710e-01 0.33 0.34 0.33
246 1 8.346e+01 4.888e+00 -6.968e-01 0.33 0.34 0.33
247 1 8.389e+01 3.015e+00 1.124e+00 0.33 0.34 0.33
248 1 8.201e+01 4.822e+00 1.502e+00 0.33 0.34 0.33
249 2 8.571e+01 3.002e+00 -5.002e-01 0.33 0.34 0.33
250 1 8.722e+01 4.801e+00 -7.765e-01 0.33 0.33 0.34
251 2 8.743e+01 3.171e+00 1.178e+00 0.33 0.34 0.34
252 3 8.545e+01 4.798e+00 1.065e+00 0.33 0.34 0.33
253 2 8.928e+01 3.120e+00 -5.188e-01 0.33 0.34 0.33
254 1 9.103e+01 4.677e+00 -6.350e-01 0.33 0.34 0.33
255 2 9.112e+01 3.080e+00 1.414e+00 0.33 0.34 0.33
256 3 8.926e+01 4.642e+00 1.124e+00 0.33 0.33 0.34
257 3 9.292e+01 2.975e+00 -6.644e-01 0.33 0.34 0.33
258 1 9.445e+01 4.859e+00 -5.348e-01 0.33 0.33 0.34
259 3 9.445e+01 2.806e+00 1.325e+00 0.33 0.34 0.33
260 3 9.241e+01 4.925e+00 1.355e+00 0.33 0.34 0.34
261 1 9.637e+01 2.935e+00 -6.244e-01 0.34 0.33 0.33
262 1 9.802e+01 4.688e+00 -4.569e-01 0.34 0.33 0.33
263 3 9.814e+01 2.919e+00 1.120e+00 0.34 0.33 0.33
264 3 9.626e+01 4.801e+00 1.210e+00 0.34 0.33 0.33
265 3 9.977e+01 2.910e+00 -7.218e-01 0.34 0.33 0.33
266 1 1.017e+02 4.789e+00 -5.598e-01 0.34 0.33 0.33
267 1 1.015e+02 3.008e+00 1.133e+00 0.34 0.34 0.33
268 3 9.980e+01 4.998e+00 1.325e+00 0.34 0.33 0.33
269 3 1.034e+02 2.998e+00 -5.982e-01 0.33 0.34 0.33
270 2 1.052e+02 4.589e+00 -7.173e-01 0.33 0.33 0.34
271 3 1.054e+02 3.031e+00 1.136e+00 0.33 0.34 0.34
272 2 1.035e+02 4.984e+00 1.240e+00 0.34 0.33 0.33
273 2 1.071e+02 3.020e+00 -4.535e-01 0.33 0.34 0.34
274 1 1.090e+02 4.624e+00 -6.748e-01 0.33 0.34 0.34
275 3 1.089e+02 3.210e+00 1.264e+00 0.33 0.34 0.33
276 1 1.072e+02 4.810e+00 1.236e+00 0.33 0.33 0.34
277 1 1.108e+02 2.990e+00 -6.312e-01 0.33 0.34 0.34
278 3 1.122e+02 4.833e+00 -8.204e-01 0.33 0.34 0.34
279 3 1.124e+02 2.935e+00 1.048e+00 0.33 0.34 0.33
280 2 1.107e+02 4.844e+00 1.349e+00 0.33 0.34 0.34
281 3 1.140e+02 3.177e+00 -7.151e-01 0.33 0.33 0.34
282 3 1.160e+02 4.645e+00 -6.401e-01 0.33 0.34 0.33
283 3 1.158e+02 2.922e+00 8.304e-01 0.33 0.33 0.33
284 1 1.141e+02 4.929e+00 1.041e+00 0.33 0.34 0.33
285 3 1.180e+02 3.077e+00 -5.059e-01 0.33 0.33 0.33
286 3 1.197e+02 5.041e+00 -4.197e-01 0.34 0.33 0.33
287 1 1.197e+02 3.049e+00 1.192e+00 0.34 0.33 0.34
288 3 1.178e+02 4.657e+00 1.222e+00 0.33 0.33 0.33
289 1 1.216e+02 2.950e+00 -6.486e-01 0.34 0.33 0.33
290 1 1.235e+02 4.591e+00 -4.702e-01 0.34 0.33 0.33
291 3 1.235e+02 3.115e+00 1.356e+00 0.34 0.33 0.33
292 2 1.215e+02 4.836e+00 1.201e+00 0.34 0.33 0.33
293 2 1.252e+02 2.906e+00 -5.420e-01 0.34 0.33 0.33
294 1 1.268e+02 4.922e+00 -6.627e-01 0.34 0.33 0.33
295 2 1.269e+02 3.041e+00 9.843e-01 0.34 0.33 0.33
296 2 1.250e+02 4.772e+00 1.231e+00 0.34 0.33 0.33
297 3 1.283e+02 2.977e+00 -6.944e-01 0.34 0.33 0.33
298 1 1.304e+02 4.799e+00 -8.004e-01 0.34 0.33 0.33
299 2 1.304e+02 3.045e+00 1.119e+00 0.34 0.33 0.33
300 1 1.286e+02 4.838e+00 9.520e-01 0.34 0.33 0.33
301 1 1.322e+02 2.909e+00 -6.401e-01 0.34 0.33 0.34
302 3 1.338e+02 5.071e+00 -5.504e-01 0.33 0.33 0.34
303 1 1.338e+02 2.930e+00 1.198e+00 0.33 0.33 0.34
304 2 1.322e+02 4.804e+00 1.013e+00 0.33 0.33 0.33
305 2 -7.076e-01 6.466e+00 -3.331e-01 0.33 0.34 0.33
306 1 1.091e+00 8.245e+00 -5.424e-01 0.33 0.34 0.33
307 2 1.172e+00 6.615e+00 1.296e+00 0.33 0.34 0.33
308 1 -6.673e-01 8.345e+00 1.176e+00 0.33 0.34 0.33
309 2 3.031e+00 6.244e+00 -4.557e-01 0.33 0.34 0.33
310 3 4.596e+00 8.064e+00 -6.292e-01 0.33 0.34 0.33
311 2 4.688e+00 6.435e+00 1.420e+00 0.33 0.34 0.33
312 2 3.068e+00 8.193e+00 1.224e+00 0.33 0.34 0.33
313 1 6.477e+00 6.380e+00 -7.246e-01 0.33 0.34 0.33
314 3 8.455e+00 8.316e+00 -6.419e-01 0.34 0.33 0.33
315 1 8.380e+00 6.511e+00 1.041e+00 0.34 0.33 0.33
316 3 6.289e+00 8.097e+00 1.166e+00 0.33 0.34 0.33
317 3 1.049e+01 6.524e+00 -5.621e-01 0.34 0.33 0.33
318 1 1.231e+01 8.275e+00 -5.423e-01 0.34 0.33 0.33
319 3 1.194e+01 6.452e+00 1.349e+00 0.34 0.33 0.33
320 2 1.036e+01 8.238e+00 1.114e+00 0.34 0.33 0.33
321 1 1.384e+01 6.257e+00 -5.751e-01 0.34 0.33 0.33
322 2 1.561e+01 8.449e+00 -5.807e-01 0.34 0.33 0.33
323 2 1.549e+01 6.417e+00 1.171e+00 0.34 0.33 0.33
324 1 1.392e+01 8.260e+00 1.274e+00 0.35 0.33 0.33
325 1 1.718e+01 6.497e+00 -7.068e-01 0.34 0.33 0.33
326 1 1.915e+01 8.320e+00 -5.466e-01 0.34 0.33 0.33
327 3 1.887e+01 6.695e+00 1.045e+00 0.34 0.33 0.33
328 2 1.714e+01 8.420e+00 1.495e+00 0.34 0.33 0.33
329 2 2.093e+01 6.461e+00 -5.750e-01 0.34 0.33 0.33
330 3 2.263e+01 7.983e+00 -5.639e-01 0.34 0.33 0.33
331 2 2.289e+01 6.497e+00 1.161e+00 0.34 0.33 0.33
332 3 2.075e+01 8.075e+00 1.020e+00 0.34 0.33 0.33
333 1 2.454e+01 6.463e+00 -7.363e-01 0.34 0.32 0.34
334 1 2.625e+01 8.148e+00 -6.691e-01 0.34 0.32 0.34
335 3 2.612e+01 6.570e+00 1.250e+00 0.34 0.33 0.33
336 3 2.435e+01 8.338e+00 1.349e+00 0.33 0.33 0.34
337 3 2.802e+01 6.443e+00 -7.568e-01 0.34 0.32 0.34
338 3 2.986e+01 8.248e+00 -5.916e-01 0.34 0.32 0.34
339 1 2.989e+01 6.647e+00 1.224e+00 0.34 0.33 0.34
340 1 2.796e+01 8.311e+00 1.160e+00 0.34 0.33 0.33
341 3 3.164e+01 6.538e+00 -5.060e-01 0.34 0.32 0.34
342 2 3.334e+01 8.318e+00 -7.538e-01 0.34 0.32 0.34
343 1 3.356e+01 6.453e+00 1.028e+00 0.34 0.32 0.34
344 2 3.170e+01 8.358e+00 1.180e+00 0.34 0.33 0.33
345 3 3.531e+01 6.492e+00 -5.327e-01 0.33 0.33 0.33
346 2 3.724e+01 8.444e+00 -6.146e-01 0.33 0.34 0.33
347 1 3.702e+01 6.656e+00 1.227e+00 0.34 0.33 0.33
348 3 3.506e+01 8.343e+00 9.830e-01 0.33 0.34 0.33
349 1 3.881e+01 6.584e+00 -3.946e-01 0.34 0.33 0.33
350 1 4.056e+01 8.563e+00 -5.579e-01 0.34 0.33 0.33
351 3 4.054e+01 6.666e+00 1.248e+00 0.34 0.33 0.33
352 1 3.882e+01 8.376e+00 1.400e+00 0.33 0.33 0.33
353 2 4.216e+01 6.387e+00 -5.932e-01 0.34 0.33 0.33
354 2 4.439e+01 8.282e+00 -7.217e-01 0.34 0.34 0.33
355 1 4.431e+01 6.505e+00 1.182e+00 0.34 0.34 0.32
356 1 4.251e+01 8.232e+00 1.056e+00 0.34 0.33 0.32
357 1 4.613e+01 6.379e+00 -7.738e-01 0.34 0.34 0.32
358 2 4.778e+01 8.317e+00 -5.968e-01 0.34 0.34 0.32
359 3 4.785e+01 6.612e+00 1.002e+00 0.34 0.34 0.32
360 3 4.603e+01 8.345e+00 1.286e+00 0.34 0.34 0.32
361 3 4.972e+01 6.383e+00 -5.282e-01 0.33 0.35 0.32
362 2 5.129e+01 8.400e+00 -4.926e-01 0.33 0.35 0.32
363 1 5.157e+01 6.553e+00 1.310e+00 0.34 0.35 0.32
364 3 4.965e+01 8.421e+00 1.232e+00 0.33 0.35 0.32
365 1 5.332e+01 6.719e+00 -3.910e-01 0.33 0.35 0.32
366 2 5.522e+01 8.507e+00 -4.005e-01 0.33 0.35 0.32
367 3 5.531e+01 6.564e+00 1.093e+00 0.34 0.35 0.31
368 2 5.333e+01 8.493e+00 1.383e+00 0.33 0.35 0.32
369 1 5.676e+01 6.739e+00 -6.774e-01 0.33 0.35 0.32
370 1 5.867e+01 8.241e+00 -8.150e-01 0.33 0.36 0.32
371 1 5.870e+01 6.512e+00 1.089e+00 0.33 0.35 0.31
372 2 5.703e+01 8.422e+00 1.232e+00 0.33 0.35 0.31
373 2 6.053e+01 6.521e+00 -5.209e-01 0.33 0.35 0.32
374 2 6.238e+01 8.357e+00 -5.954e-01 0.33 0.35 0.32
375 2 6.252e+01 6.824e+00 1.282e+00 0.33 0.35 0.32
376 2 6.045e+01 8.357e+00 1.171e+00 0.33 0.35 0.32
377 3 6.409e+01 6.596e+00 -6.742e-01 0.33 0.35 0.32
378 1 6.580e+01 8.414e+00 -7.789e-01 0.33 0.35 0.33
379 1 6.592e+01 6.591e+00 9.696e-01 0.33 0.35 0.32
380 3 6.440e+01 8.731e+00 1.188e+00 0.33 0.35 0.32
381 2 6.766e+01 6.637e+00 -7.241e-01 0.33 0.35 0.32
382 3 6.962e+01 8.303e+00 -6.091e-01 0.33 0.35 0.32
383 1 6.927e+01 6.667e+00 1.127e+00 0.33 0.35 0.32
384 3 6.747e+01 8.454e+00 9.149e-01 0.33 0.35 0.32
385 3 7.118e+01 6.629e+00 -8.103e-01 0.33 0.35 0.32
386 3 7.302e+01 8.252e+00 -6.988e-01 0.33 0.35 0.32
387 1 7.304e+01 6.442e+00 1.064e+00 0.33 0.35 0.32
388 3 7.130e+01 8.114e+00 1.234e+00 0.34 0.34 0.32
389 3 7.482e+01 6.533e+00 -7.101e-01 0.33 0.35 0.32
390 2 7.642e+01 8.433e+00 -4.720e-01 0.34 0.34 0.32
391 1 7.649e+01 6.465e+00 1.234e+00 0.33 0.34 0.32
392 2 7.452e+01 8.406e+00 1.093e+00 0.33 0.34 0.32
393 3 7.804e+01 6.670e+00 -7.005e-01 0.33 0.34 0.33
394 1 7.997e+01 8.275e+00 -7.003e-01 0.33 0.34 0.33
395 1 8.000e+01 6.484e+00 1.251e+00 0.32 0.35 0.33
396 1 7.807e+01 8.458e+00 1.359e+00 0.33 0.34 0.33
397 2 8.199e+01 6.737e+00 -6.679e-01 0.33 0.34 0.33
398 1 8.383e+01 8.563e+00 -7.963e-01 0.33 0.34 0.34
399 2 8.368e+01 6.644e+00 1.362e+00 0.32 0.34 0.34
400 2 8.188e+01 8.648e+00 1.254e+00 0.33 0.34 0.34
401 3 8.528e+01 6.394e+00 -4.761e-01 0.33 0.34 0.33
402 3 8.735e+01 8.123e+00 -6.963e-01 0.33 0.34 0.34
403 2 8.722e+01 6.556e+00 1.296e+00 0.32 0.34 0.34
404 1 8.558e+01 8.389e+00 1.095e+00 0.32 0.34 0.34
405 2 8.918e+01 6.650e+00 -5.889e-01 0.33 0.34 0.34
406 1 9.092e+01 8.441e+00 -5.510e-01 0.33 0.33 0.34
407 2 9.070e+01 6.549e+00 1.239e+00 0.33 0.33 0.34
408 3 8.933e+01 8.575e+00 1.156e+00 0.32 0.34 0.34
409 2 9.268e+01 6.736e+00 -4.712e-01 0.33 0.33 0.33
410 3 9.424e+01 8.427e+00 -4.590e-01 0.33 0.34 0.33
411 3 9.425e+01 6.680e+00 1.080e+00 0.33 0.33 0.33
412 3 9.240e+01 8.622e+00 1.396e+00 0.33 0.33 0.34
413 1 9.614e+01 6.346e+00 -5.451e-01 0.33 0.33 0.33
414 1 9.806e+01 8.292e+00 -6.552e-01 0.34 0.34 0.33
415 1 9.815e+01 6.549e+00 1.108e+00 0.34 0.33 0.33
416 1 9.631e+01 8.351e+00 1.122e+00 0.34 0.34 0.33
417 3 9.958e+01 6.501e+00 -8.222e-01 0.33 0.33 0.34
418 3 1.017e+02 8.190e+00 -5.621e-01 0.33 0.33 0.34
419 1 1.015e+02 6.642e+00 1.152e+00 0.33 0.33 0.33
420 3 9.978e+01 8.434e+00 1.243e+00 0.33 0.33 0.34
421 1 1.036e+02 6.539e+00 -5.741e-01 0.33 0.33 0.34
422 1 1.052e+02 8.273e+00 -6.548e-01 0.33 0.33 0.34
423 3 1.053e+02 6.422e+00 1.121e+00 0.33 0.33 0.34
424 1 1.034e+02 8.305e+00 1.210e+00 0.33 0.34 0.33
425 3 1.072e+02 6.406e+00 -6.217e-01 0.33 0.33 0.34
426 1 1.090e+02 8.303e+00 -6.201e-01 0.33 0.33 0.34
427 1 1.089e+02 6.631e+00 1.177e+00 0.33 0.34 0.33
428 3 1.071e+02 8.424e+00 1.414e+00 0.33 0.33 0.34
429 2 1.106e+02 6.513e+00 -6.017e-01 0.33 0.34 0.34
430 1 1.127e+02 8.583e+00 -6.706e-01 0.33 0.34 0.33
431 1 1.125e+02 6.740e+00 1.117e+00 0.33 0.34 0.33
432 2 1.106e+02 8.525e+00 1.216e+00 0.33 0.33 0.33
433 3 1.141e+02 6.575e+00 -7.241e-01 0.33 0.34 0.33
434 2 1.161e+02 8.317e+00 -4.867e-01 0.33 0.34 0.34
435 1 1.159e+02 6.473e+00 1.023e+00 0.33 0.34 0.34
436 2 1.141e+02 8.451e+00 1.264e+00 0.33 0.34 0.33
437 1 1.179e+02 6.566e+00 -3.636e-01 0.33 0.34 0.33
438 2 1.199e+02 8.195e+00 -5.691e-01 0.33 0.33 0.33
439 2 1.199e+02 6.719e+00 1.479e+00 0.33 0.34 0.34
440 2 1.178e+02 8.526e+00 1.330e+00 0.33 0.33 0.34
441 2 1.217e+02 6.623e+00 -7.514e-01 0.34 0.33 0.33
442 1 1.232e+02 8.486e+00 -4.143e-01 0.34 0.33 0.33
443 2 1.234e+02 6.640e+00 1.231e+00 0.34 0.33 0.33
444 3 1.215e+02 8.372e+00 1.270e+00 0.33 0.34 0.34
445 2 1.250e+02 6.529e+00 -5.880e-01 0.34 0.33 0.33
446 1 1.267e+02 8.357e+00 -6.299e-01 0.34 0.33 0.33
447 1 1.268e+02 6.649e+00 1.057e+00 0.34 0.33 0.33
448 1 1.250e+02 8.460e+00 1.125e+00 0.33 0.33 0.33
449 1 1.287e+02 6.722e+00 -6.828e-01 0.34 0.33 0.33
450 3 1.304e+02 8.304e+00 -6.705e-01 0.33 0.33 0.34
451 3 1.303e+02 6.613e+00 9.971e-01 0.34 0.33 0.33
452 2 1.287e+02 8.480e+00 1.245e+00 0.33 0.33 0.33
453 2 1.323e+02 6.676e+00 -8.464e-01 0.33 0.33 0.33
454 1 1.341e+02 8.259e+00 -7.014e-01 0.33 0.34 0.33
455 3 1.339e+02 6.695e+00 1.298e+00 0.33 0.34 0.33
456 1 1.322e+02 8.338e+00 1.045e+00 0.33 0.34 0.33
457 1 -7.462e-01 1.009e+01 -5.773e-01 0.33 0.34 0.33
458 1 1.079e+00 1.211e+01 -6.715e-01 0.33 0.34 0.33
459 3 1.195e+00 1.016e+01 1.096e+00 0.33 0.34 0.33
460 1 -8.063e-01 1.181e+01 1.117e+00 0.33 0.35 0.33
461 3 3.066e+00 1.027e+01 -6.932e-01 0.33 0.34 0.33
462 2 4.945e+00 1.210e+01 -6.131e-01 0.33 0.34 0.32
463 3 4.845e+00 9.970e+00 1.073e+00 0.33 0.34 0.33
464 1 2.893e+00 1.191e+01 1.129e+00 0.33 0.34 0.33
465 3 6.271e+00 9.809e+00 -8.487e-01 0.33 0.35 0.32
466 1 8.332e+00 1.200e+01 -7.813e-01 0.34 0.34 0.32
467 2 8.113e+00 1.006e+01 9.083e-01 0.34 0.34 0.32
468 3 6.487e+00 1.171e+01 1.152e+00 0.33 0.34 0.33
469 3 1.015e+01 9.925e+00 -4.686e-01 0.34 0.33 0.33
470 1 1.184e+01 1.192e+01 -4.471e-01 0.34 0.33 0.33
471 1 1.201e+01 1.006e+01 1.273e+00 0.34 0.33 0.33
472 3 9.853e+00 1.170e+01 1.145e+00 0.34 0.34 0.33
473 3 1.384e+01 1.012e+01 -5.529e-01 0.34 0.33 0.33
474 2 1.564e+01 1.184e+01 -6.560e-01 0.34 0.33 0.33
475 2 1.550e+01 1.020e+01 1.335e+00 0.34 0.33 0.33
476 3 1.378e+01 1.182e+01 1.165e+00 0.34 0.33 0.33
477 1 1.732e+01 1.002e+01 -6.948e-01 0.34 0.33 0.33
478 1 1.893e+01 1.191e+01 -5.708e-01 0.34 0.33 0.33
479 1 1.907e+01 1.022e+01 1.030e+00 0.34 0.33 0.33
480 3 1.716e+01 1.202e+01 1.210e+00 0.34 0.33 0.33
481 1 2.071e+01 1.035e+01 -6.789e-01 0.33 0.33 0.34
482 1 2.245e+01 1.204e+01 -6.319e-01 0.33 0.33 0.33
483 1 2.242e+01 9.912e+00 9.207e-01 0.34 0.33 0.33
484 3 2.082e+01 1.202e+01 1.203e+00 0.34 0.33 0.33
485 3 2.453e+01 1.021e+01 -5.541e-01 0.34 0.33 0.34
486 3 2.628e+01 1.197e+01 -6.811e-01 0.34 0.33 0.34
487 3 2.620e+01 1.025e+01 1.084e+00 0.34 0.33 0.34
488 2 2.429e+01 1.184e+01 1.043e+00 0.34 0.33 0.33
489 1 2.794e+01 1.022e+01 -6.519e-01 0.34 0.33 0.33
490 2 2.965e+01 1.181e+01 -6.560e-01 0.34 0.33 0.33
491 1 2.977e+01 1.037e+01 1.190e+00 0.34 0.33 0.33
492 2 2.809e+01 1.212e+01 9.782e-01 0.34 0.33 0.34
493 1 3.147e+01 9.939e+00 -5.248e-01 0.34 0.32 0.34
494 1 3.312e+01 1.204e+01 -6.579e-01 0.34 0.33 0.34
495 2 3.344e+01 1.004e+01 1.194e+00 0.33 0.33 0.34
496 1 3.143e+01 1.196e+01 1.146e+00 0.34 0.33 0.33
497 2 3.497e+01 1.014e+01 -5.057e-01 0.34 0.33 0.34
498 1 3.694e+01 1.199e+01 -4.849e-01 0.34 0.33 0.33
499 1 3.703e+01 1.013e+01 1.280e+00 0.34 0.33 0.33
500 3 3.511e+01 1.194e+01 1.189e+00 0.34 0.33 0.34
501 2 3.870e+01 1.027e+01 -6.151e-01 0.34 0.33 0.33
502 3 4.056e+01 1.195e+01 -4.199e-01 0.34 0.34 0.32
503 2 4.030e+01 1.028e+01 1.277e+00 0.34 0.33 0.32
504 2 3.872e+01 1.198e+01 9.486e-01 0.34 0.33 0.33
505 1 4.245e+01 1.035e+01 -7.532e-01 0.34 0.34 0.32
506 1 4.427e+01 1.200e+01 -6.686e-01 0.34 0.34 0.32
507 2 4.417e+01 1.001e+01 1.125e+00 0.34 0.34 0.32
508 2 4.245e+01 1.198e+01 1.296e+00 0.34 0.34 0.32
509 3 4.614e+01 1.032e+01 -5.132e-01 0.34 0.34 0.32
510 1 4.791e+01 1.186e+01 -5.654e-01 0.34 0.34 0.32
511 3 4.752e+01 1.011e+01 1.451e+00 0.34 0.34 0.32
512 2 4.579e+01 1.194e+01 1.267e+00 0.34 0.34 0.32
513 1 4.963e+01 1.019e+01 -4.540e-01 0.34 0.34 0.32
514 1 5.128e+01 1.204e+01 -6.547e-01 0.34 0.34 0.32
515 3 5.153e+01 1.011e+01 1.161e+00 0.34 0.34 0.32
516 3 4.946e+01 1.184e+01 1.296e+00 0.34 0.35 0.32
517 1 5.321e+01 1.014e+01 -7.667e-01 0.33 0.35 0.32
518 3 5.505e+01 1.193e+01 -8.089e-01 0.33 0.35 0.32
519 1 5.494e+01 1.027e+01 1.139e+00 0.33 0.35 0.32
520 1 5.310e+01 1.196e+01 1.117e+00 0.33 0.35 0.32
521 3 5.694e+01 1.007e+01 -4.269e-01 0.33 0.35 0.32
522 3 5.862e+01 1.181e+01 -7.663e-01 0.33 0.35 0.32
523 3 5.873e+01 1.016e+01 1.070e+00 0.33 0.35 0.32
524 1 5.680e+01 1.194e+01 1.050e+00 0.33 0.35 0.32
525 3 6.045e+01 1.024e+01 -7.223e-01 0.33 0.35 0.32
526 1 6.204e+01 1.219e+01 -5.988e-01 0.33 0.35 0.32
527 3 6.224e+01 1.017e+01 1.289e+00 0.33 0.35 0.33
528 2 6.037e+01 1.166e+01 1.185e+00 0.34 0.35 0.32
529 3 6.373e+01 1.055e+01 -9.666e-01 0.33 0.35 0.33
530 2 6.594e+01 1.202e+01 -2.752e-01 0.33 0.34 0.33
531 3 6.610e+01 1.024e+01 1.013e+00 0.33 0.35 0.33
532 1 6.413e+01 1.200e+01 1.231e+00 0.33 0.35 0.32
533 3 6.772e+01 1.025e+01 -8.495e-01 0.33 0.35 0.32
534 1 6.957e+01 1.238e+01 -8.006e-01 0.34 0.34 0.32
535 3 6.928e+01 1.012e+01 1.040e+00 0.33 0.34 0.32
536 2 6.802e+01 1.230e+01 1.091e+00 0.33 0.35 0.32
537 3 7.124e+01 1.045e+01 -7.014e-01 0.33 0.35 0.32
538 1 7.301e+01 1.199e+01 -6.608e-01 0.33 0.35 0.32
539 2 7.285e+01 1.014e+01 1.067e+00 0.33 0.35 0.32
540 3 7.103e+01 1.214e+01 1.015e+00 0.33 0.34 0.32
541 3 7.460e+01 1.012e+01 -7.928e-01 0.33 0.34 0.32
542 2 7.646e+01 1.218e+01 -5.863e-01 0.34 0.34 0.32
543 1 7.638e+01 1.015e+01 1.086e+00 0.33 0.34 0.33
544 3 7.457e+01 1.185e+01 1.206e+00 0.33 0.35 0.32
545 2 7.816e+01 1.011e+01 -7.486e-01 0.33 0.34 0.33
546 1 7.999e+01 1.200e+01 -7.117e-01 0.33 0.33 0.33
547 2 7.987e+01 9.928e+00 1.078e+00 0.32 0.34 0.33
548 2 7.842e+01 1.193e+01 1.041e+00 0.33 0.34 0.33
549 3 8.196e+01 1.026e+01 -7.690e-01 0.33 0.34 0.33
550 3 8.369e+01 1.192e+01 -5.003e-01 0.33 0.33 0.34
551 3 8.371e+01 1.015e+01 1.130e+00 0.33 0.33 0.34
552 1 8.187e+01 1.206e+01 1.264e+00 0.33 0.33 0.34
553 3 8.563e+01 1.016e+01 -9.094e-01 0.33 0.33 0.34
554 2 8.738e+01 1.201e+01 -8.040e-01 0.33 0.33 0.34
555 3 8.758e+01 9.966e+00 1.006e+00 0.33 0.33 0.34
556 3 8.559e+01 1.193e+01 1.221e+00 0.33 0.33 0.33
557 3 8.930e+01 1.050e+01 -8.610e-01 0.33 0.33 0.33
558 2 9.105e+01 1.210e+01 -6.055e-01 0.33 0.33 0.34
559 2 9.071e+01 1.051e+01 1.132e+00 0.33 0.33 0.34
560 1 8.912e+01 1.217e+01 1.161e+00 0.33 0.33 0.34
561 3 9.249e+01 1.022e+01 -5.876e-01 0.33 0.33 0.34
562 1 9.464e+01 1.204e+01 -7.205e-01 0.33 0.33 0.33
563 2 9.433e+01 1.030e+01 1.369e+00 0.33 0.34 0.33
564 3 9.273e+01 1.211e+01 1.096e+00 0.33 0.33 0.34
565 3 9.634e+01 1.011e+01 -6.026e-01 0.33 0.34 0.33
566 3 9.796e+01 1.215e+01 -2.498e-01 0.33 0.34 0.33
567 3 9.819e+01 1.013e+01 9.788e-01 0.33 0.33 0.33
568 3 9.633e+01 1.208e+01 1.080e+00 0.33 0.34 0.33
569 3 9.990e+01 1.016e+01 -6.580e-01 0.33 0.33 0.33
570 1 1.015e+02 1.200e+01 -8.351e-01 0.33 0.33 0.34
571 1 1.018e+02 1.016e+01 1.179e+00 0.33 0.33 0.34
572 2 9.987e+01 1.204e+01 1.125e+00 0.33 0.34 0.33
573 1 1.036e+02 1.002e+01 -6.851e-01 0.33 0.33 0.34
575 3 1.053e+02 1.027e+01 1.214e+00 0.33 0.33 0.34
577 2 1.069e+02 1.009e+01 -5.765e-01 0.33 0.33 0.34
579 3 1.086e+02 1.024e+01 1.190e+00 0.33 0.34 0.34