ITEM: TIMESTEP
0
ITEM: NUMBER OF ATOMS
1000
ITEM: BOX BOUNDS xy xz yz pp pp pp
                     -1.17765815333851e+00 1.35697658153338e+02 0.00000000000000e+00
-1.17765815333851e+00	1.35697658153338e+02	0.00000000000000e+00
-1.17765815333851e+00	1.35697658153338e+02	0.00000000000000e+00
ITEM: ATOMS id type x y z p1 p2 p3
1 3 -1.056e+00 -7.835e-01 -8.318e-01 0.34 0.32 0.34
2 1 8.552e-01 8.406e-01 -1.016e+00 0.33 0.33 0.34
3 1 9.083e-01 -1.025e+00 8.582e-01 0.33 0.33 0.34
4 1 -7.402e-01 9.413e-01 1.111e+00 0.33 0.33 0.34
5 2 2.781e+00 -8.753e-01 -7.680e-01 0.33 0.33 0.34
6 1 4.106e+00 1.064e+00 -1.052e+00 0.33 0.33 0.34
7 1 4.646e+00 -7.725e-01 8.643e-01 0.33 0.33 0.34
8 1 2.614e+00 8.435e-01 1.135e+00 0.33 0.33 0.34
9 3 6.277e+00 -8.988e-01 -4.905e-01 0.33 0.33 0.34
10 1 8.177e+00 9.908e-01 -7.788e-01 0.34 0.33 0.34
11 2 8.202e+00 -7.197e-01 1.201e+00 0.33 0.33 0.34
12 3 6.296e+00 1.005e+00 8.397e-01 0.33 0.33 0.34
13 3 9.825e+00 -9.030e-01 -4.801e-01 0.34 0.33 0.33
14 2 1.171e+01 8.743e-01 -9.674e-01 0.34 0.32 0.33
15 3 1.191e+01 -9.213e-01 9.868e-01 0.34 0.33 0.33
16 2 1.007e+01 9.285e-01 1.144e+00 0.34 0.33 0.33
17 2 1.367e+01 -7.016e-01 -8.661e-01 0.34 0.33 0.33
19 3 1.527e+01 -8.350e-01 1.085e+00 0.34 0.33 0.34
20 3 1.350e+01 9.175e-01 6.351e-01 0.35 0.33 0.33
21 3 1.717e+01 -7.110e-01 -9.876e-01 0.34 0.33 0.33
22 3 1.904e+01 9.724e-01 -7.560e-01 0.34 0.33 0.33
23 1 1.898e+01 -8.917e-01 8.686e-01 0.34 0.33 0.33
24 1 1.705e+01 7.854e-01 6.292e-01 0.34 0.32 0.34
25 1 2.075e+01 -8.102e-01 -8.763e-01 0.33 0.34 0.33
26 3 2.222e+01 9.577e-01 -7.397e-01 0.33 0.34 0.33
27 1 2.241e+01 -9.219e-01 9.928e-01 0.34 0.34 0.32
28 2 2.044e+01 1.280e+00 9.792e-01 0.33 0.33 0.34
29 3 2.422e+01 -7.786e-01 -7.799e-01 0.34 0.34 0.33
30 2 2.591e+01 8.506e-01 -1.134e+00 0.33 0.33 0.33
31 3 2.588e+01 -8.205e-01 8.935e-01 0.34 0.33 0.33
32 1 2.430e+01 1.038e+00 8.742e-01 0.33 0.33 0.33
33 1 2.807e+01 -7.921e-01 -8.906e-01 0.33 0.34 0.33
34 2 2.981e+01 9.285e-01 -6.681e-01 0.33 0.34 0.33
35 2 2.964e+01 -8.953e-01 9.405e-01 0.33 0.34 0.33
36 1 2.786e+01 9.105e-01 9.817e-01 0.33 0.33 0.33
37 1 3.162e+01 -9.497e-01 -8.014e-01 0.33 0.34 0.33
38 2 3.346e+01 1.113e+00 -9.243e-01 0.33 0.34 0.34
39 2 3.327e+01 -7.970e-01 9.917e-01 0.33 0.34 0.33
40 1 3.138e+01 7.784e-01 1.111e+00 0.33 0.34 0.33
41 2 3.512e+01 -7.934e-01 -7.199e-01 0.34 0.33 0.33
42 2 3.691e+01 1.136e+00 -8.253e-01 0.34 0.34 0.33
43 3 3.684e+01 -7.707e-01 6.695e-01 0.34 0.33 0.33
44 1 3.533e+01 1.397e+00 9.657e-01 0.33 0.33 0.33
45 1 3.897e+01 -7.864e-01 -6.849e-01 0.34 0.33 0.33
46 1 4.067e+01 9.824e-01 -6.751e-01 0.34 0.33 0.33
47 1 4.029e+01 -9.385e-01 1.179e+00 0.34 0.33 0.33
48 1 3.863e+01 1.046e+00 9.803e-01 0.34 0.33 0.33
49 3 4.210e+01 -9.812e-01 -5.616e-01 0.34 0.33 0.33
50 1 4.417e+01 8.982e-01 -8.311e-01 0.33 0.34 0.33
51 3 4.423e+01 -1.042e+00 9.979e-01 0.34 0.33 0.33
52 3 4.262e+01 7.938e-01 1.095e+00 0.33 0.33 0.33
53 3 4.608e+01 -6.378e-01 -9.631e-01 0.33 0.34 0.34
54 3 4.800e+01 1.204e+00 -7.520e-01 0.33 0.33 0.34
55 3 4.778e+01 -9.081e-01 1.062e+00 0.33 0.33 0.34
56 1 4.594e+01 8.631e-01 9.062e-01 0.33 0.33 0.34
57 2 4.960e+01 -7.610e-01 -1.099e+00 0.33 0.33 0.34
58 1 5.143e+01 9.245e-01 -6.086e-01 0.34 0.32 0.34
59 2 5.153e+01 -8.274e-01 1.075e+00 0.34 0.33 0.34
60 2 4.952e+01 7.479e-01 1.164e+00 0.33 0.33 0.33
61 2 5.322e+01 -5.152e-01 -1.003e+00 0.34 0.32 0.33
62 2 5.515e+01 1.085e+00 -9.958e-01 0.35 0.32 0.34
63 3 5.494e+01 -9.347e-01 1.032e+00 0.34 0.32 0.34
64 2 5.341e+01 8.892e-01 1.158e+00 0.34 0.32 0.34
65 2 5.663e+01 -8.803e-01 -7.745e-01 0.34 0.32 0.34
66 1 5.865e+01 8.280e-01 -8.950e-01 0.34 0.32 0.34
67 3 5.861e+01 -6.792e-01 9.860e-01 0.34 0.32 0.34
68 3 5.679e+01 8.267e-01 7.363e-01 0.34 0.32 0.34
69 2 6.059e+01 -8.337e-01 -8.177e-01 0.34 0.32 0.34
70 2 6.231e+01 1.104e+00 -1.023e+00 0.34 0.32 0.35
71 2 6.222e+01 -7.073e-01 9.813e-01 0.34 0.32 0.34
72 1 6.031e+01 9.206e-01 1.020e+00 0.34 0.32 0.34
73 2 6.403e+01 -8.448e-01 -7.536e-01 0.34 0.32 0.34
74 2 6.570e+01 1.035e+00 -1.043e+00 0.34 0.32 0.34
75 2 6.582e+01 -7.165e-01 9.837e-01 0.34 0.32 0.34
76 2 6.417e+01 1.107e+00 8.175e-01 0.35 0.32 0.34
77 1 6.751e+01 -6.932e-01 -7.617e-01 0.33 0.32 0.34
79 3 6.949e+01 -7.836e-01 8.102e-01 0.33 0.32 0.34
80 3 6.761e+01 1.139e+00 7.201e-01 0.34 0.32 0.34
81 1 7.131e+01 -5.398e-01 -8.581e-01 0.33 0.32 0.34
82 2 7.315e+01 1.090e+00 -7.199e-01 0.33 0.32 0.34
83 1 7.292e+01 -6.913e-01 1.019e+00 0.33 0.33 0.34
84 3 7.105e+01 1.107e+00 8.945e-01 0.34 0.32 0.34
85 1 7.482e+01 -8.838e-01 -8.870e-01 0.33 0.33 0.34
86 1 7.656e+01 9.368e-01 -4.824e-01 0.34 0.32 0.34
87 3 7.655e+01 -8.317e-01 1.286e+00 0.34 0.33 0.33
88 3 7.476e+01 9.302e-01 1.086e+00 0.33 0.33 0.34
89 2 7.838e+01 -9.157e-01 -7.704e-01 0.33 0.33 0.34
90 1 8.015e+01 1.008e+00 -8.092e-01 0.33 0.33 0.34
91 1 8.006e+01 -6.404e-01 1.095e+00 0.33 0.34 0.34
92 1 7.835e+01 1.189e+00 9.821e-01 0.33 0.33 0.34
93 1 8.205e+01 -7.787e-01 -7.570e-01 0.33 0.34 0.34
94 1 8.382e+01 1.001e+00 -9.456e-01 0.33 0.34 0.33
95 2 8.385e+01 -9.939e-01 1.031e+00 0.32 0.34 0.33
96 2 8.211e+01 1.068e+00 7.960e-01 0.33 0.34 0.34
97 1 8.550e+01 -5.949e-01 -8.994e-01 0.33 0.34 0.33
98 3 8.743e+01 1.081e+00 -7.953e-01 0.33 0.34 0.33
99 3 8.719e+01 -2.379e-01 9.678e-01 0.33 0.34 0.33
100 2 8.540e+01 1.042e+00 1.200e+00 0.32 0.35 0.33
101 3 8.936e+01 -5.847e-01 -6.981e-01 0.33 0.34 0.33
102 2 9.120e+01 1.019e+00 -8.860e-01 0.33 0.35 0.33
103 1 9.131e+01 -7.614e-01 9.206e-01 0.32 0.34 0.33
104 3 8.942e+01 1.138e+00 9.270e-01 0.32 0.34 0.33
105 2 9.307e+01 -5.979e-01 -9.467e-01 0.32 0.35 0.33
106 3 9.449e+01 1.170e+00 -8.138e-01 0.33 0.34 0.33
107 1 9.481e+01 -8.686e-01 9.436e-01 0.32 0.35 0.33
108 2 9.282e+01 1.122e+00 9.712e-01 0.33 0.34 0.33
109 3 9.655e+01 -7.304e-01 -9.653e-01 0.33 0.34 0.33
110 2 9.829e+01 9.984e-01 -6.949e-01 0.33 0.34 0.33
111 3 9.789e+01 -9.202e-01 7.488e-01 0.33 0.34 0.33
112 3 9.610e+01 1.154e+00 1.077e+00 0.32 0.34 0.33
113 1 1.001e+02 -7.106e-01 -6.340e-01 0.33 0.34 0.33
114 3 1.018e+02 9.271e-01 -9.217e-01 0.33 0.34 0.33
115 3 1.018e+02 -8.973e-01 1.040e+00 0.33 0.34 0.33
116 2 9.987e+01 1.132e+00 1.085e+00 0.33 0.34 0.33
117 2 1.038e+02 -8.485e-01 -8.147e-01 0.33 0.33 0.34
118 2 1.054e+02 9.672e-01 -1.027e+00 0.33 0.33 0.33
119 2 1.055e+02 -1.098e+00 1.081e+00 0.33 0.34 0.33
120 1 1.036e+02 9.201e-01 8.197e-01 0.33 0.33 0.34
121 1 1.074e+02 -9.046e-01 -7.570e-01 0.33 0.34 0.33
122 1 1.089e+02 9.311e-01 -6.969e-01 0.33 0.33 0.34
123 2 1.091e+02 -9.338e-01 8.872e-01 0.33 0.34 0.33
124 1 1.071e+02 1.026e+00 1.111e+00 0.33 0.33 0.33
125 3 1.107e+02 -8.695e-01 -6.103e-01 0.33 0.34 0.33
126 3 1.125e+02 8.253e-01 -8.154e-01 0.33 0.33 0.34
127 2 1.124e+02 -1.043e+00 1.288e+00 0.33 0.34 0.33
128 3 1.108e+02 7.543e-01 1.126e+00 0.33 0.34 0.33
129 2 1.142e+02 -8.012e-01 -5.929e-01 0.33 0.33 0.34
130 1 1.159e+02 9.357e-01 -6.696e-01 0.32 0.34 0.34
131 3 1.163e+02 -6.815e-01 1.230e+00 0.33 0.33 0.34
132 1 1.143e+02 9.826e-01 1.047e+00 0.32 0.34 0.34
133 1 1.179e+02 -5.255e-01 -8.681e-01 0.33 0.33 0.34
134 1 1.195e+02 9.587e-01 -9.191e-01 0.33 0.33 0.34
135 1 1.194e+02 -9.433e-01 6.977e-01 0.33 0.33 0.34
136 2 1.178e+02 9.752e-01 1.242e+00 0.33 0.33 0.34
137 1 1.214e+02 -1.041e+00 -1.060e+00 0.33 0.33 0.34
138 1 1.231e+02 8.759e-01 -8.270e-01 0.34 0.33 0.34
139 2 1.235e+02 -8.830e-01 7.920e-01 0.33 0.33 0.34
140 3 1.215e+02 7.861e-01 1.210e+00 0.33 0.33 0.34
141 2 1.250e+02 -1.020e+00 -9.225e-01 0.34 0.32 0.34
142 3 1.267e+02 6.861e-01 -9.404e-01 0.34 0.33 0.34
143 3 1.266e+02 -7.697e-01 1.025e+00 0.33 0.33 0.34
144 2 1.250e+02 9.504e-01 1.095e+00 0.34 0.33 0.33
145 3 1.289e+02 -9.287e-01 -1.036e+00 0.34 0.32 0.34
146 2 1.307e+02 9.066e-01 -7.403e-01 0.34 0.33 0.34
147 2 1.306e+02 -9.448e-01 8.173e-01 0.34 0.33 0.34
148 3 1.288e+02 9.987e-01 7.693e-01 0.34 0.33 0.33
149 2 1.327e+02 -8.246e-01 -8.923e-01 0.33 0.33 0.34
150 3 1.343e+02 1.057e+00 -5.669e-01 0.34 0.32 0.34
152 1 1.325e+02 9.297e-01 1.018e+00 0.34 0.32 0.34
153 3 -7.326e-01 2.842e+00 -5.542e-01 0.34 0.32 0.34
154 3 9.971e-01 4.651e+00 -7.581e-01 0.33 0.33 0.34
155 1 8.562e-01 2.934e+00 1.067e+00 0.34 0.33 0.34
156 3 -8.141e-01 4.540e+00 1.081e+00 0.34 0.33 0.34
157 3 2.416e+00 2.761e+00 -9.546e-01 0.33 0.33 0.34
158 3 4.747e+00 4.569e+00 -9.468e-01 0.34 0.33 0.33
159 3 4.723e+00 2.759e+00 7.544e-01 0.34 0.33 0.34
160 2 3.005e+00 4.496e+00 8.260e-01 0.33 0.33 0.34
161 1 6.439e+00 2.712e+00 -9.073e-01 0.33 0.33 0.34
162 3 8.541e+00 4.653e+00 -8.445e-01 0.34 0.33 0.34
163 2 8.232e+00 2.836e+00 9.799e-01 0.34 0.33 0.33
164 2 6.405e+00 4.409e+00 8.042e-01 0.33 0.33 0.34
165 3 9.990e+00 2.883e+00 -6.420e-01 0.34 0.33 0.33
166 2 1.184e+01 4.712e+00 -6.213e-01 0.34 0.32 0.33
167 1 1.165e+01 2.594e+00 9.310e-01 0.34 0.33 0.33
168 2 1.013e+01 4.557e+00 1.324e+00 0.34 0.33 0.33
169 3 1.352e+01 2.590e+00 -8.501e-01 0.35 0.32 0.33
170 1 1.522e+01 4.554e+00 -7.859e-01 0.34 0.32 0.34
171 3 1.562e+01 2.813e+00 9.144e-01 0.34 0.32 0.33
172 3 1.352e+01 4.387e+00 9.806e-01 0.34 0.32 0.34
173 2 1.740e+01 2.867e+00 -8.880e-01 0.35 0.32 0.33
174 1 1.911e+01 4.579e+00 -1.016e+00 0.34 0.33 0.33
175 2 1.856e+01 2.772e+00 9.925e-01 0.34 0.32 0.34
176 2 1.713e+01 4.768e+00 8.547e-01 0.34 0.32 0.34
177 3 2.089e+01 3.001e+00 -7.836e-01 0.34 0.33 0.34
178 3 2.265e+01 4.923e+00 -8.426e-01 0.33 0.34 0.33
179 1 2.253e+01 2.901e+00 1.265e+00 0.33 0.33 0.33
180 3 2.045e+01 4.521e+00 9.461e-01 0.34 0.32 0.34
181 2 2.429e+01 2.901e+00 -7.034e-01 0.33 0.34 0.33
182 2 2.602e+01 4.511e+00 -5.884e-01 0.33 0.34 0.33
183 3 2.595e+01 2.596e+00 9.198e-01 0.34 0.33 0.33
184 3 2.418e+01 4.719e+00 8.681e-01 0.34 0.34 0.33
185 2 2.798e+01 2.307e+00 -8.627e-01 0.33 0.34 0.33
186 2 2.971e+01 4.371e+00 -7.765e-01 0.33 0.34 0.33
187 1 2.970e+01 2.748e+00 1.187e+00 0.33 0.34 0.34
188 2 2.782e+01 4.456e+00 8.331e-01 0.33 0.34 0.33
189 3 3.123e+01 2.696e+00 -8.938e-01 0.33 0.34 0.34
190 1 3.295e+01 4.360e+00 -7.194e-01 0.33 0.34 0.33
191 3 3.332e+01 2.519e+00 1.135e+00 0.33 0.33 0.33
192 3 3.136e+01 4.557e+00 1.192e+00 0.33 0.34 0.33
193 1 3.503e+01 3.225e+00 -6.850e-01 0.33 0.34 0.33
194 3 3.708e+01 4.902e+00 -9.496e-01 0.34 0.33 0.33
195 3 3.687e+01 3.358e+00 8.165e-01 0.34 0.33 0.33
196 3 3.519e+01 4.757e+00 1.278e+00 0.34 0.33 0.33
197 1 3.870e+01 2.912e+00 -9.330e-01 0.33 0.33 0.33
198 2 4.052e+01 4.778e+00 -8.259e-01 0.33 0.33 0.33
199 1 4.062e+01 2.692e+00 7.115e-01 0.34 0.33 0.33
200 2 3.876e+01 4.695e+00 9.432e-01 0.34 0.33 0.33
201 3 4.246e+01 3.091e+00 -5.302e-01 0.34 0.33 0.33
202 3 4.423e+01 4.791e+00 -1.019e+00 0.33 0.33 0.34
203 3 4.431e+01 2.583e+00 7.779e-01 0.33 0.33 0.34
204 3 4.217e+01 4.855e+00 9.535e-01 0.34 0.33 0.34
205 1 4.607e+01 2.754e+00 -7.479e-01 0.33 0.33 0.34
206 1 4.793e+01 4.668e+00 -9.948e-01 0.33 0.33 0.34
207 1 4.778e+01 2.683e+00 1.212e+00 0.33 0.34 0.34
208 2 4.571e+01 4.315e+00 9.560e-01 0.34 0.33 0.34
209 1 4.962e+01 2.730e+00 -1.095e+00 0.33 0.33 0.34
210 3 5.139e+01 4.594e+00 -1.096e+00 0.34 0.32 0.34
211 3 5.120e+01 2.767e+00 1.074e+00 0.33 0.33 0.34
212 2 4.984e+01 4.659e+00 8.852e-01 0.33 0.33 0.34
213 3 5.318e+01 2.679e+00 -8.772e-01 0.34 0.32 0.34
214 3 5.519e+01 4.515e+00 -7.031e-01 0.34 0.31 0.34
215 1 5.515e+01 2.665e+00 8.017e-01 0.34 0.32 0.34
216 1 5.334e+01 4.373e+00 8.388e-01 0.34 0.32 0.34
217 2 5.705e+01 2.788e+00 -8.333e-01 0.34 0.32 0.34
218 3 5.864e+01 4.614e+00 -1.030e+00 0.34 0.31 0.35
219 3 5.882e+01 2.906e+00 8.633e-01 0.35 0.31 0.34
220 2 5.697e+01 4.842e+00 9.871e-01 0.34 0.32 0.34
221 2 6.053e+01 2.980e+00 -8.878e-01 0.34 0.31 0.34
222 3 6.215e+01 4.551e+00 -6.175e-01 0.34 0.32 0.34
223 1 6.205e+01 2.579e+00 9.648e-01 0.34 0.32 0.34
224 1 6.033e+01 4.720e+00 8.974e-01 0.34 0.31 0.35
226 2 6.567e+01 4.533e+00 -1.115e+00 0.34 0.31 0.35
227 2 6.575e+01 2.731e+00 6.379e-01 0.35 0.31 0.34
228 3 6.397e+01 4.472e+00 8.562e-01 0.35 0.31 0.34
229 2 6.759e+01 2.640e+00 -1.163e+00 0.34 0.32 0.34
230 2 6.939e+01 4.553e+00 -8.482e-01 0.34 0.32 0.34
231 1 6.940e+01 2.707e+00 7.435e-01 0.34 0.32 0.34
232 3 6.743e+01 4.450e+00 8.179e-01 0.35 0.31 0.34
233 1 7.127e+01 2.868e+00 -8.383e-01 0.34 0.32 0.34
234 2 7.338e+01 4.742e+00 -8.464e-01 0.34 0.32 0.34
235 1 7.294e+01 2.889e+00 9.231e-01 0.33 0.33 0.34
236 1 7.133e+01 4.597e+00 9.759e-01 0.34 0.32 0.34
237 3 7.493e+01 2.664e+00 -5.837e-01 0.33 0.33 0.34
238 2 7.643e+01 4.521e+00 -6.419e-01 0.33 0.33 0.34
239 3 7.656e+01 3.017e+00 1.284e+00 0.33 0.33 0.34
240 1 7.479e+01 4.647e+00 1.179e+00 0.33 0.33 0.34
241 1 7.824e+01 2.745e+00 -9.991e-01 0.34 0.32 0.34
242 3 8.013e+01 4.637e+00 -1.014e+00 0.33 0.33 0.34
243 1 8.006e+01 2.868e+00 1.113e+00 0.33 0.33 0.34
244 3 7.842e+01 4.574e+00 9.357e-01 0.33 0.33 0.34
245 1 8.192e+01 3.041e+00 -7.807e-01 0.33 0.34 0.33
246 2 8.368e+01 4.593e+00 -9.102e-01 0.33 0.33 0.34
247 3 8.371e+01 2.913e+00 1.002e+00 0.33 0.34 0.33
248 2 8.192e+01 4.814e+00 1.195e+00 0.33 0.33 0.34
249 3 8.534e+01 2.907e+00 -9.568e-01 0.33 0.34 0.33
250 3 8.743e+01 4.383e+00 -8.121e-01 0.33 0.34 0.33
251 3 8.716e+01 2.788e+00 9.863e-01 0.32 0.35 0.33
252 1 8.564e+01 4.585e+00 8.002e-01 0.33 0.34 0.33
253 3 8.936e+01 2.760e+00 -8.273e-01 0.33 0.34 0.33
254 2 9.110e+01 4.703e+00 -7.035e-01 0.33 0.34 0.33
255 3 9.127e+01 2.619e+00 8.920e-01 0.32 0.34 0.34
256 3 8.897e+01 4.699e+00 1.037e+00 0.33 0.33 0.33
257 1 9.282e+01 3.031e+00 -9.614e-01 0.33 0.34 0.33
258 2 9.481e+01 4.365e+00 -1.049e+00 0.34 0.33 0.33
259 2 9.461e+01 2.868e+00 1.157e+00 0.33 0.34 0.33
260 2 9.301e+01 4.571e+00 7.986e-01 0.33 0.33 0.34
261 1 9.673e+01 2.740e+00 -7.093e-01 0.33 0.34 0.33
262 1 9.845e+01 4.260e+00 -1.042e+00 0.33 0.33 0.33
263 3 9.827e+01 2.947e+00 1.215e+00 0.33 0.34 0.33
264 2 9.640e+01 4.596e+00 9.492e-01 0.33 0.33 0.34
265 3 1.002e+02 2.543e+00 -8.589e-01 0.33 0.34 0.33
266 1 1.020e+02 4.467e+00 -8.009e-01 0.33 0.33 0.34
267 1 1.018e+02 2.683e+00 1.057e+00 0.33 0.33 0.33
268 1 1.000e+02 4.279e+00 8.544e-01 0.33 0.34 0.33
269 3 1.037e+02 2.608e+00 -7.946e-01 0.34 0.33 0.33
270 2 1.055e+02 4.764e+00 -9.767e-01 0.34 0.33 0.33
271 3 1.055e+02 3.160e+00 8.596e-01 0.33 0.33 0.33
272 2 1.036e+02 4.510e+00 9.390e-01 0.33 0.33 0.33
273 3 1.070e+02 2.662e+00 -6.978e-01 0.33 0.33 0.34
274 1 1.088e+02 4.601e+00 -8.414e-01 0.33 0.34 0.33
275 3 1.088e+02 2.928e+00 1.119e+00 0.33 0.33 0.33
276 2 1.073e+02 4.811e+00 8.829e-01 0.33 0.33 0.33
277 3 1.108e+02 2.727e+00 -7.882e-01 0.33 0.33 0.34
278 3 1.125e+02 4.438e+00 -6.256e-01 0.32 0.33 0.34
279 3 1.124e+02 2.602e+00 9.030e-01 0.33 0.34 0.34
280 1 1.108e+02 4.393e+00 1.102e+00 0.32 0.34 0.34
281 1 1.143e+02 2.708e+00 -7.063e-01 0.33 0.33 0.34
282 1 1.160e+02 4.490e+00 -4.647e-01 0.32 0.34 0.34
283 1 1.160e+02 2.875e+00 1.049e+00 0.32 0.34 0.34
284 3 1.141e+02 4.367e+00 1.213e+00 0.32 0.34 0.34
285 2 1.177e+02 2.772e+00 -7.432e-01 0.32 0.33 0.34
286 1 1.197e+02 4.327e+00 -8.738e-01 0.33 0.33 0.33
287 1 1.200e+02 2.732e+00 1.114e+00 0.34 0.34 0.33
288 3 1.179e+02 4.435e+00 9.935e-01 0.33 0.33 0.34
289 3 1.215e+02 2.797e+00 -9.723e-01 0.34 0.33 0.33
290 2 1.235e+02 4.358e+00 -8.994e-01 0.33 0.33 0.34
291 2 1.233e+02 2.538e+00 7.879e-01 0.33 0.33 0.34
292 3 1.215e+02 4.599e+00 9.556e-01 0.33 0.33 0.34
293 1 1.252e+02 2.606e+00 -7.853e-01 0.34 0.32 0.34
294 3 1.272e+02 4.683e+00 -9.761e-01 0.34 0.32 0.34
295 1 1.270e+02 2.623e+00 8.756e-01 0.33 0.32 0.34
296 1 1.252e+02 4.426e+00 8.264e-01 0.33 0.32 0.34
297 1 1.287e+02 2.738e+00 -1.089e+00 0.34 0.33 0.34
298 2 1.304e+02 4.602e+00 -5.604e-01 0.34 0.32 0.34
299 2 1.306e+02 2.828e+00 1.058e+00 0.34 0.32 0.33
300 1 1.286e+02 4.554e+00 8.930e-01 0.34 0.32 0.34
301 3 1.324e+02 2.973e+00 -6.283e-01 0.34 0.32 0.34
302 2 1.341e+02 4.403e+00 -8.547e-01 0.33 0.32 0.34
303 2 1.341e+02 2.668e+00 1.223e+00 0.34 0.32 0.33
304 2 1.324e+02 4.394e+00 1.097e+00 0.34 0.32 0.34
305 1 -8.602e-01 6.234e+00 -5.218e-01 0.33 0.33 0.34
306 3 1.064e+00 8.446e+00 -6.261e-01 0.34 0.32 0.34
307 3 1.252e+00 6.372e+00 1.081e+00 0.33 0.32 0.34
308 3 -6.231e-01 8.256e+00 1.134e+00 0.34 0.32 0.34
309 3 2.754e+00 6.247e+00 -9.178e-01 0.33 0.33 0.34
310 1 4.544e+00 8.179e+00 -1.004e+00 0.33 0.33 0.34
311 2 4.594e+00 6.370e+00 7.483e-01 0.33 0.33 0.34
312 3 2.789e+00 8.172e+00 1.071e+00 0.34 0.33 0.34
313 2 6.568e+00 6.221e+00 -7.128e-01 0.33 0.33 0.33
314 3 8.071e+00 8.523e+00 -8.501e-01 0.34 0.33 0.33
315 2 8.098e+00 6.480e+00 1.130e+00 0.34 0.33 0.33
316 1 6.055e+00 8.404e+00 8.244e-01 0.34 0.33 0.34
317 2 9.952e+00 6.500e+00 -4.661e-01 0.34 0.33 0.33
318 3 1.165e+01 8.059e+00 -8.225e-01 0.34 0.33 0.33
319 1 1.178e+01 6.484e+00 1.370e+00 0.34 0.33 0.34
320 1 9.977e+00 8.418e+00 1.103e+00 0.34 0.33 0.33
321 3 1.375e+01 6.529e+00 -5.368e-01 0.34 0.33 0.33
322 2 1.511e+01 8.421e+00 -8.704e-01 0.34 0.33 0.34
323 2 1.538e+01 6.448e+00 9.652e-01 0.34 0.32 0.34
324 3 1.368e+01 8.121e+00 1.101e+00 0.34 0.33 0.33
325 2 1.686e+01 6.469e+00 -7.378e-01 0.34 0.32 0.33
326 3 1.904e+01 8.030e+00 -7.326e-01 0.34 0.33 0.33
327 1 1.863e+01 6.779e+00 1.028e+00 0.34 0.33 0.34
328 2 1.692e+01 8.339e+00 7.360e-01 0.34 0.32 0.34
329 2 2.077e+01 6.333e+00 -5.426e-01 0.34 0.33 0.34
330 2 2.228e+01 8.133e+00 -7.379e-01 0.34 0.33 0.33
331 3 2.265e+01 6.441e+00 9.459e-01 0.34 0.33 0.33
332 3 2.070e+01 8.165e+00 1.379e+00 0.34 0.33 0.34
333 1 2.433e+01 6.522e+00 -8.112e-01 0.33 0.34 0.33
334 2 2.611e+01 8.126e+00 -8.861e-01 0.33 0.34 0.33
335 3 2.626e+01 6.615e+00 8.892e-01 0.33 0.34 0.33
336 3 2.433e+01 8.285e+00 1.116e+00 0.34 0.33 0.33
337 2 2.780e+01 6.449e+00 -6.662e-01 0.33 0.34 0.33
338 1 2.961e+01 8.127e+00 -5.684e-01 0.33 0.34 0.33
339 2 2.971e+01 6.097e+00 9.619e-01 0.33 0.34 0.33
340 1 2.784e+01 8.141e+00 1.184e+00 0.33 0.34 0.33
341 2 3.134e+01 6.452e+00 -5.963e-01 0.33 0.34 0.33
342 3 3.331e+01 8.250e+00 -5.372e-01 0.34 0.34 0.32
343 3 3.319e+01 6.168e+00 7.653e-01 0.33 0.34 0.33
344 2 3.149e+01 8.029e+00 1.016e+00 0.33 0.34 0.33
345 2 3.505e+01 6.159e+00 -6.299e-01 0.33 0.34 0.33
346 3 3.693e+01 8.202e+00 -6.030e-01 0.34 0.34 0.33
347 2 3.699e+01 6.518e+00 1.171e+00 0.34 0.34 0.33
348 2 3.491e+01 8.043e+00 1.175e+00 0.34 0.34 0.32
349 1 3.865e+01 6.590e+00 -5.796e-01 0.34 0.33 0.33
350 1 4.050e+01 8.412e+00 -9.085e-01 0.34 0.33 0.33
351 2 4.055e+01 6.430e+00 1.278e+00 0.34 0.33 0.34
352 1 3.879e+01 8.210e+00 9.794e-01 0.34 0.33 0.33
353 2 4.249e+01 6.507e+00 -6.697e-01 0.34 0.33 0.34
354 3 4.410e+01 8.133e+00 -8.061e-01 0.33 0.33 0.33
355 1 4.433e+01 6.365e+00 9.259e-01 0.34 0.33 0.34
356 1 4.245e+01 8.368e+00 9.598e-01 0.34 0.33 0.33
357 1 4.611e+01 6.248e+00 -6.365e-01 0.33 0.33 0.34
358 3 4.791e+01 8.176e+00 -8.002e-01 0.33 0.33 0.34
359 1 4.808e+01 6.644e+00 1.094e+00 0.33 0.33 0.34
360 3 4.610e+01 8.302e+00 1.053e+00 0.34 0.33 0.34
361 3 4.955e+01 6.552e+00 -1.120e+00 0.33 0.33 0.34
362 1 5.147e+01 8.072e+00 -8.034e-01 0.33 0.32 0.34
363 1 5.159e+01 6.370e+00 1.033e+00 0.33 0.33 0.34
364 3 4.991e+01 8.168e+00 1.053e+00 0.33 0.33 0.34
365 1 5.328e+01 6.515e+00 -9.952e-01 0.34 0.32 0.34
366 1 5.492e+01 8.389e+00 -1.024e+00 0.33 0.31 0.35
367 3 5.489e+01 6.423e+00 7.928e-01 0.33 0.32 0.35
368 1 5.328e+01 8.118e+00 1.061e+00 0.33 0.32 0.35
369 1 5.687e+01 6.629e+00 -9.016e-01 0.34 0.32 0.35
370 3 5.865e+01 8.603e+00 -6.946e-01 0.33 0.31 0.35
371 1 5.847e+01 6.687e+00 8.276e-01 0.34 0.31 0.35
372 1 5.654e+01 8.321e+00 8.934e-01 0.33 0.31 0.35
373 2 6.037e+01 6.558e+00 -7.765e-01 0.34 0.32 0.34
374 3 6.209e+01 8.324e+00 -7.770e-01 0.34 0.31 0.35
375 1 6.212e+01 6.582e+00 9.253e-01 0.34 0.31 0.35
376 3 6.032e+01 8.440e+00 1.094e+00 0.34 0.31 0.35
377 2 6.398e+01 6.369e+00 -8.179e-01 0.34 0.31 0.35
378 3 6.566e+01 8.127e+00 -9.591e-01 0.34 0.31 0.35
379 1 6.558e+01 6.174e+00 7.396e-01 0.34 0.31 0.34
380 3 6.383e+01 8.341e+00 7.903e-01 0.34 0.31 0.35
381 3 6.744e+01 6.216e+00 -1.038e+00 0.34 0.31 0.35
382 3 6.929e+01 8.307e+00 -1.019e+00 0.34 0.31 0.35
383 1 6.952e+01 6.355e+00 9.103e-01 0.34 0.32 0.34
384 3 6.766e+01 8.113e+00 6.925e-01 0.34 0.31 0.34
385 1 7.125e+01 6.349e+00 -8.660e-01 0.34 0.32 0.34
386 2 7.294e+01 8.486e+00 -9.066e-01 0.33 0.32 0.35
387 2 7.313e+01 6.622e+00 8.190e-01 0.33 0.32 0.35
388 3 7.103e+01 8.140e+00 8.585e-01 0.34 0.32 0.34
389 3 7.489e+01 6.577e+00 -8.759e-01 0.33 0.32 0.34
390 2 7.683e+01 8.298e+00 -7.536e-01 0.33 0.32 0.34
391 2 7.675e+01 6.094e+00 9.554e-01 0.33 0.33 0.34
392 3 7.502e+01 7.995e+00 8.949e-01 0.34 0.32 0.34
393 3 7.837e+01 6.215e+00 -9.086e-01 0.33 0.33 0.34
394 3 7.991e+01 8.382e+00 -8.141e-01 0.33 0.33 0.34
395 2 8.021e+01 6.377e+00 8.081e-01 0.33 0.33 0.34
396 1 7.840e+01 8.455e+00 9.825e-01 0.33 0.33 0.35
397 1 8.191e+01 6.435e+00 -1.040e+00 0.33 0.33 0.34
398 3 8.371e+01 8.159e+00 -9.371e-01 0.33 0.33 0.34
399 2 8.371e+01 6.202e+00 1.009e+00 0.33 0.33 0.33
400 2 8.194e+01 8.233e+00 7.922e-01 0.34 0.32 0.34
401 3 8.547e+01 6.347e+00 -9.738e-01 0.33 0.33 0.34
403 2 8.711e+01 6.398e+00 6.563e-01 0.34 0.33 0.34
404 1 8.544e+01 8.046e+00 6.956e-01 0.33 0.33 0.34
405 2 8.928e+01 6.113e+00 -7.132e-01 0.34 0.33 0.33
406 1 9.084e+01 7.868e+00 -8.115e-01 0.33 0.33 0.34
407 2 9.107e+01 6.301e+00 9.127e-01 0.33 0.33 0.34
408 3 8.911e+01 8.106e+00 7.989e-01 0.34 0.33 0.34
409 1 9.278e+01 6.385e+00 -7.923e-01 0.34 0.33 0.34
410 1 9.452e+01 8.026e+00 -1.125e+00 0.34 0.33 0.34
411 2 9.481e+01 6.287e+00 8.697e-01 0.33 0.33 0.34
412 2 9.266e+01 8.138e+00 8.931e-01 0.34 0.33 0.34
413 2 9.657e+01 6.417e+00 -9.575e-01 0.34 0.32 0.34
414 3 9.826e+01 8.376e+00 -1.019e+00 0.34 0.33 0.34
415 1 9.830e+01 6.187e+00 8.454e-01 0.34 0.33 0.33
416 3 9.628e+01 7.944e+00 1.039e+00 0.34 0.33 0.33
417 3 9.992e+01 6.501e+00 -1.067e+00 0.33 0.33 0.33
418 1 1.019e+02 8.297e+00 -1.055e+00 0.33 0.34 0.33
419 1 1.018e+02 6.506e+00 1.172e+00 0.33 0.34 0.33
420 2 9.983e+01 8.149e+00 6.576e-01 0.33 0.33 0.34
421 3 1.035e+02 6.356e+00 -8.940e-01 0.33 0.34 0.33
422 3 1.050e+02 8.210e+00 -9.849e-01 0.33 0.33 0.34
423 2 1.050e+02 6.334e+00 7.472e-01 0.33 0.34 0.33
424 2 1.036e+02 8.086e+00 1.171e+00 0.33 0.34 0.33
425 2 1.071e+02 6.583e+00 -7.493e-01 0.33 0.33 0.33
426 1 1.091e+02 8.305e+00 -6.927e-01 0.33 0.33 0.34
427 3 1.090e+02 6.296e+00 1.133e+00 0.33 0.33 0.34
428 3 1.072e+02 8.092e+00 9.786e-01 0.34 0.33 0.33
429 2 1.107e+02 6.218e+00 -4.746e-01 0.33 0.34 0.34
430 1 1.122e+02 8.227e+00 -7.725e-01 0.33 0.33 0.34
431 1 1.125e+02 6.323e+00 1.029e+00 0.32 0.34 0.34
432 1 1.107e+02 8.208e+00 1.048e+00 0.32 0.33 0.35
433 1 1.142e+02 6.430e+00 -6.351e-01 0.33 0.34 0.34
434 3 1.162e+02 8.365e+00 -6.919e-01 0.33 0.33 0.34
435 3 1.161e+02 6.701e+00 8.835e-01 0.33 0.34 0.33
436 1 1.142e+02 8.469e+00 9.718e-01 0.33 0.34 0.34
437 3 1.178e+02 6.112e+00 -8.396e-01 0.33 0.33 0.34
438 1 1.196e+02 7.877e+00 -8.841e-01 0.33 0.33 0.34
439 2 1.197e+02 6.225e+00 1.055e+00 0.33 0.33 0.34
440 2 1.183e+02 8.004e+00 1.125e+00 0.34 0.33 0.33
441 2 1.216e+02 6.368e+00 -6.921e-01 0.33 0.33 0.34
442 3 1.234e+02 8.174e+00 -5.289e-01 0.33 0.32 0.34
443 1 1.234e+02 6.386e+00 9.387e-01 0.33 0.33 0.34
444 2 1.215e+02 7.919e+00 1.220e+00 0.34 0.33 0.34
445 1 1.252e+02 6.354e+00 -7.458e-01 0.33 0.33 0.35
446 1 1.271e+02 8.316e+00 -6.910e-01 0.33 0.32 0.35
447 3 1.269e+02 6.457e+00 9.253e-01 0.33 0.32 0.35
448 3 1.252e+02 8.252e+00 1.179e+00 0.33 0.32 0.34
449 2 1.289e+02 6.596e+00 -4.084e-01 0.33 0.32 0.34
450 2 1.306e+02 8.344e+00 -7.112e-01 0.33 0.32 0.34
451 1 1.307e+02 6.444e+00 1.135e+00 0.33 0.33 0.34
452 3 1.285e+02 8.418e+00 1.345e+00 0.34 0.32 0.34
453 2 1.324e+02 6.360e+00 -7.907e-01 0.34 0.33 0.34
454 2 1.342e+02 8.303e+00 -5.550e-01 0.34 0.32 0.34
455 2 1.343e+02 6.323e+00 9.321e-01 0.34 0.32 0.34
456 1 1.324e+02 8.182e+00 1.054e+00 0.34 0.33 0.34
457 3 -9.222e-01 9.758e+00 -4.166e-01 0.34 0.32 0.34
458 3 8.157e-01 1.164e+01 -8.333e-01 0.34 0.32 0.34
459 1 1.069e+00 1.008e+01 1.012e+00 0.34 0.32 0.34
460 3 -8.574e-01 1.166e+01 1.077e+00 0.34 0.33 0.34
461 3 2.762e+00 1.000e+01 -7.383e-01 0.33 0.33 0.34
463 3 4.672e+00 1.042e+01 1.006e+00 0.34 0.32 0.33
464 3 2.592e+00 1.198e+01 1.230e+00 0.34 0.33 0.33
465 3 6.233e+00 1.021e+01 -1.045e+00 0.34 0.33 0.34
466 2 8.030e+00 1.186e+01 -7.937e-01 0.34 0.32 0.33
467 3 8.017e+00 9.992e+00 1.072e+00 0.35 0.32 0.33
468 3 6.388e+00 1.212e+01 1.410e+00 0.34 0.32 0.34
469 1 1.012e+01 1.010e+01 -6.349e-01 0.34 0.33 0.34
470 2 1.159e+01 1.190e+01 -8.527e-01 0.34 0.33 0.33
471 1 1.232e+01 9.885e+00 1.263e+00 0.34 0.32 0.34
472 1 9.661e+00 1.179e+01 8.571e-01 0.34 0.33 0.33
473 1 1.352e+01 1.023e+01 -9.806e-01 0.33 0.33 0.34
474 2 1.521e+01 1.192e+01 -7.912e-01 0.34 0.33 0.33
475 2 1.516e+01 1.014e+01 9.709e-01 0.34 0.32 0.34
476 1 1.348e+01 1.183e+01 1.019e+00 0.34 0.32 0.34
477 3 1.696e+01 9.972e+00 -7.814e-01 0.34 0.32 0.34
478 3 1.918e+01 1.164e+01 -6.395e-01 0.33 0.33 0.34
479 3 1.909e+01 9.702e+00 1.210e+00 0.33 0.32 0.34
480 2 1.720e+01 1.160e+01 9.437e-01 0.34 0.32 0.34
481 2 2.068e+01 9.943e+00 -8.202e-01 0.34 0.33 0.33
482 1 2.252e+01 1.192e+01 -7.227e-01 0.34 0.33 0.33
483 1 2.258e+01 9.856e+00 9.686e-01 0.34 0.33 0.33
484 3 2.099e+01 1.172e+01 1.047e+00 0.34 0.33 0.33
485 1 2.421e+01 9.986e+00 -7.986e-01 0.34 0.34 0.33
486 2 2.595e+01 1.197e+01 -8.584e-01 0.33 0.34 0.33
487 1 2.598e+01 1.008e+01 1.030e+00 0.33 0.34 0.33
488 2 2.413e+01 1.177e+01 1.074e+00 0.34 0.34 0.32
489 1 2.783e+01 9.734e+00 -4.557e-01 0.32 0.34 0.33
490 1 2.997e+01 1.174e+01 -6.385e-01 0.33 0.34 0.32
491 1 2.979e+01 1.002e+01 1.384e+00 0.33 0.34 0.33
492 1 2.798e+01 1.166e+01 1.087e+00 0.34 0.34 0.32
493 1 3.155e+01 9.876e+00 -5.637e-01 0.33 0.34 0.33
494 2 3.327e+01 1.157e+01 -5.037e-01 0.33 0.34 0.32
495 2 3.320e+01 9.791e+00 1.101e+00 0.33 0.34 0.33
496 2 3.157e+01 1.163e+01 1.312e+00 0.33 0.34 0.33
497 2 3.519e+01 1.002e+01 -5.461e-01 0.34 0.34 0.32
498 3 3.675e+01 1.172e+01 -6.484e-01 0.34 0.34 0.32
499 1 3.703e+01 1.011e+01 1.123e+00 0.34 0.34 0.32
500 2 3.499e+01 1.177e+01 1.046e+00 0.33 0.34 0.32
502 2 4.075e+01 1.158e+01 -7.822e-01 0.34 0.34 0.33
503 1 4.055e+01 9.950e+00 1.087e+00 0.34 0.33 0.33
504 1 3.877e+01 1.177e+01 8.366e-01 0.33 0.34 0.33
505 2 4.267e+01 1.010e+01 -6.159e-01 0.34 0.34 0.33
506 1 4.423e+01 1.182e+01 -7.222e-01 0.33 0.34 0.33
507 1 4.434e+01 9.979e+00 1.220e+00 0.33 0.33 0.34
508 3 4.232e+01 1.163e+01 1.012e+00 0.34 0.33 0.33
509 3 4.591e+01 9.925e+00 -6.535e-01 0.33 0.33 0.33
510 3 4.818e+01 1.172e+01 -8.598e-01 0.33 0.33 0.34
511 1 4.795e+01 1.015e+01 1.117e+00 0.34 0.33 0.34
512 1 4.619e+01 1.176e+01 8.260e-01 0.33 0.33 0.34
513 3 4.989e+01 9.976e+00 -8.336e-01 0.33 0.33 0.34
514 1 5.152e+01 1.188e+01 -1.022e+00 0.33 0.32 0.35
515 1 5.158e+01 1.027e+01 7.924e-01 0.33 0.32 0.34
516 3 4.970e+01 1.176e+01 9.933e-01 0.33 0.33 0.34
517 3 5.316e+01 1.023e+01 -9.817e-01 0.33 0.32 0.35
518 1 5.506e+01 1.203e+01 -6.809e-01 0.33 0.32 0.35
519 1 5.492e+01 1.009e+01 9.617e-01 0.33 0.32 0.35
520 2 5.309e+01 1.220e+01 9.095e-01 0.33 0.32 0.34
521 3 5.669e+01 1.007e+01 -9.987e-01 0.33 0.32 0.35
522 3 5.858e+01 1.197e+01 -8.157e-01 0.33 0.31 0.35
523 2 5.835e+01 1.015e+01 1.021e+00 0.33 0.31 0.35
524 3 5.683e+01 1.210e+01 1.079e+00 0.33 0.31 0.35
525 2 6.031e+01 1.021e+01 -7.138e-01 0.34 0.31 0.36
526 3 6.207e+01 1.183e+01 -9.596e-01 0.34 0.31 0.35
527 2 6.211e+01 1.011e+01 9.990e-01 0.34 0.30 0.35
528 2 6.035e+01 1.228e+01 8.345e-01 0.34 0.31 0.36
529 1 6.380e+01 1.012e+01 -9.768e-01 0.35 0.30 0.35
530 3 6.582e+01 1.208e+01 -1.046e+00 0.34 0.31 0.35
531 3 6.575e+01 1.016e+01 8.962e-01 0.34 0.31 0.35
532 1 6.404e+01 1.170e+01 1.007e+00 0.34 0.31 0.35
533 2 6.745e+01 1.006e+01 -8.406e-01 0.34 0.31 0.35
534 1 6.931e+01 1.183e+01 -1.109e+00 0.34 0.32 0.35
535 1 6.938e+01 1.027e+01 7.964e-01 0.34 0.31 0.35
536 1 6.768e+01 1.186e+01 8.306e-01 0.34 0.31 0.35
537 3 7.115e+01 1.005e+01 -1.032e+00 0.34 0.32 0.34
538 1 7.294e+01 1.179e+01 -1.032e+00 0.33 0.32 0.35
539 3 7.319e+01 9.960e+00 5.797e-01 0.34 0.32 0.34
540 3 7.131e+01 1.198e+01 8.308e-01 0.34 0.32 0.34
541 2 7.492e+01 9.744e+00 -1.071e+00 0.33 0.32 0.35
542 1 7.648e+01 1.218e+01 -9.312e-01 0.33 0.32 0.34
543 2 7.633e+01 1.033e+01 9.413e-01 0.33 0.32 0.35
544 1 7.474e+01 1.213e+01 7.663e-01 0.33 0.32 0.35
545 2 7.827e+01 1.010e+01 -8.309e-01 0.33 0.32 0.35
546 1 8.019e+01 1.193e+01 -8.177e-01 0.33 0.32 0.35
547 2 8.025e+01 1.026e+01 9.261e-01 0.33 0.32 0.35
548 1 7.832e+01 1.185e+01 8.830e-01 0.33 0.33 0.35
549 2 8.183e+01 1.006e+01 -1.127e+00 0.33 0.33 0.34
550 1 8.370e+01 1.160e+01 -1.115e+00 0.33 0.32 0.34
551 3 8.369e+01 1.008e+01 7.819e-01 0.34 0.32 0.34
552 3 8.199e+01 1.181e+01 6.956e-01 0.34 0.32 0.34
553 1 8.575e+01 1.009e+01 -8.416e-01 0.34 0.32 0.34
554 1 8.755e+01 1.195e+01 -9.458e-01 0.34 0.32 0.34
555 2 8.746e+01 1.002e+01 8.788e-01 0.34 0.32 0.34
556 1 8.555e+01 1.169e+01 7.255e-01 0.34 0.32 0.34
557 3 8.914e+01 9.688e+00 -8.624e-01 0.33 0.33 0.34
558 1 9.116e+01 1.146e+01 -7.400e-01 0.33 0.33 0.34
559 1 9.097e+01 1.005e+01 1.211e+00 0.33 0.33 0.34
560 1 8.892e+01 1.179e+01 1.010e+00 0.33 0.32 0.34
561 3 9.266e+01 9.566e+00 -8.595e-01 0.33 0.33 0.34
562 3 9.433e+01 1.182e+01 -8.072e-01 0.34 0.33 0.33
563 2 9.456e+01 9.565e+00 7.035e-01 0.34 0.33 0.34
564 1 9.290e+01 1.153e+01 9.222e-01 0.34 0.33 0.34
565 3 9.612e+01 1.014e+01 -8.681e-01 0.34 0.33 0.34
566 2 9.834e+01 1.168e+01 -1.087e+00 0.33 0.33 0.33
567 2 9.800e+01 1.000e+01 9.381e-01 0.34 0.33 0.34
568 3 9.609e+01 1.155e+01 1.056e+00 0.34 0.32 0.34
569 3 1.001e+02 9.752e+00 -9.406e-01 0.34 0.33 0.33
570 1 1.018e+02 1.179e+01 -6.794e-01 0.33 0.33 0.34
571 2 1.018e+02 9.860e+00 8.981e-01 0.33 0.33 0.34
572 3 9.992e+01 1.160e+01 9.730e-01 0.33 0.33 0.34
573 2 1.035e+02 1.009e+01 -8.590e-01 0.33 0.33 0.34
574 1 1.054e+02 1.183e+01 -8.327e-01 0.33 0.33 0.34
575 2 1.054e+02 9.923e+00 8.078e-01 0.33 0.33 0.34
576 3 1.035e+02 1.193e+01 9.776e-01 0.33 0.33 0.34
577 3 1.071e+02 9.849e+00 -9.960e-01 0.33 0.33 0.34
578 3 1.089e+02 1.172e+01 -6.997e-01 0.32 0.33 0.35
579 3 1.087e+02 1.011e+01 8.872e-01 0.33 0.33 0.34
580 2 1.072e+02 1.158e+01 6.282e-01 0.33 0.33 0.34
581 3 1.109e+02 1.010e+01 -6.032e-01 0.32 0.33 0.34
582 2 1.127e+02 1.183e+01 -7.898e-01 0.32 0.34 0.34
583 1 1.125e+02 1.008e+01 1.011e+00 0.32 0.34 0.34