ITEM: TIMESTEP
0
ITEM: NUMBER OF ATOMS
1000
ITEM: BOX BOUNDS xy xz yz pp pp pp
                     -5.55794811376344e-01 1.35075794811376e+02 0.00000000000000e+00
-5.55794811376344e-01	1.35075794811376e+02	0.00000000000000e+00
-5.55794811376344e-01	1.35075794811376e+02	0.00000000000000e+00
ITEM: ATOMS id type x y z p1 p2 p3
1 1 -2.152e-01 -3.353e-01 3.472e-02 0.35 0.32 0.33
2 3 1.764e+00 1.401e+00 -3.520e-01 0.34 0.33 0.33
3 2 1.625e+00 -1.871e-01 1.542e+00 0.35 0.32 0.33
4 1 -2.319e-01 1.584e+00 1.562e+00 0.35 0.33 0.33
5 2 3.471e+00 -3.250e-01 -3.053e-01 0.35 0.33 0.32
6 2 5.351e+00 1.549e+00 -1.599e-01 0.34 0.33 0.33
7 2 5.292e+00 -2.162e-01 1.620e+00 0.35 0.33 0.32
8 1 3.443e+00 1.506e+00 1.599e+00 0.34 0.33 0.33
9 2 7.063e+00 -3.544e-01 -1.018e-01 0.35 0.33 0.32
10 1 8.639e+00 1.589e+00 -1.729e-01 0.35 0.33 0.33
11 3 8.680e+00 -2.084e-01 1.759e+00 0.35 0.33 0.32
12 3 6.876e+00 1.397e+00 1.618e+00 0.35 0.33 0.32
13 3 1.028e+01 -1.671e-01 -7.201e-02 0.35 0.33 0.32
14 2 1.220e+01 1.572e+00 -1.363e-01 0.35 0.33 0.32
15 2 1.214e+01 -3.187e-01 1.566e+00 0.35 0.33 0.32
16 2 1.047e+01 1.484e+00 1.578e+00 0.35 0.33 0.32
17 2 1.400e+01 -1.935e-01 -3.959e-01 0.34 0.33 0.32
18 2 1.582e+01 1.667e+00 -1.029e-01 0.34 0.33 0.32
19 1 1.586e+01 -1.934e-01 1.628e+00 0.34 0.33 0.32
20 1 1.413e+01 1.539e+00 1.493e+00 0.34 0.33 0.33
21 3 1.778e+01 -5.652e-02 -2.691e-01 0.34 0.34 0.32
22 2 1.947e+01 1.738e+00 -2.014e-01 0.34 0.34 0.32
23 1 1.934e+01 -2.792e-01 1.564e+00 0.34 0.34 0.32
24 3 1.756e+01 1.566e+00 1.489e+00 0.34 0.34 0.32
25 3 2.109e+01 -1.313e-01 -1.171e-01 0.34 0.34 0.33
26 1 2.309e+01 1.640e+00 -1.816e-01 0.34 0.34 0.33
27 3 2.298e+01 -1.283e-01 1.566e+00 0.34 0.33 0.32
28 3 2.114e+01 1.592e+00 1.694e+00 0.34 0.34 0.32
29 1 2.475e+01 -3.140e-01 -1.620e-01 0.34 0.33 0.33
30 1 2.656e+01 1.569e+00 -9.234e-02 0.34 0.33 0.33
31 2 2.655e+01 -2.496e-01 1.572e+00 0.34 0.33 0.33
32 2 2.480e+01 1.514e+00 1.648e+00 0.34 0.34 0.32
33 2 2.823e+01 -1.225e-01 -2.382e-01 0.34 0.33 0.32
34 1 3.001e+01 1.700e+00 -2.312e-01 0.34 0.33 0.33
35 1 3.010e+01 -1.863e-01 1.480e+00 0.34 0.33 0.33
36 3 2.828e+01 1.722e+00 1.788e+00 0.34 0.34 0.33
37 3 3.193e+01 -1.748e-01 -2.268e-01 0.34 0.33 0.33
38 2 3.359e+01 1.713e+00 -1.899e-01 0.34 0.33 0.33
39 3 3.368e+01 -1.238e-01 1.380e+00 0.34 0.33 0.33
40 3 3.175e+01 1.672e+00 1.448e+00 0.34 0.33 0.33
41 1 3.552e+01 -2.774e-01 -1.770e-01 0.34 0.33 0.33
42 3 3.738e+01 1.619e+00 -1.737e-01 0.34 0.32 0.34
43 3 3.732e+01 -1.628e-01 1.623e+00 0.34 0.33 0.34
44 3 3.565e+01 1.577e+00 1.471e+00 0.34 0.32 0.34
45 1 3.909e+01 -1.187e-01 -2.841e-01 0.34 0.33 0.33
46 3 4.087e+01 1.631e+00 -3.797e-01 0.34 0.33 0.34
47 1 4.093e+01 -1.395e-01 1.568e+00 0.34 0.33 0.33
48 3 3.918e+01 1.601e+00 1.575e+00 0.33 0.33 0.34
49 1 4.257e+01 -1.799e-01 -2.735e-01 0.34 0.33 0.33
50 2 4.443e+01 1.667e+00 -2.343e-01 0.34 0.33 0.33
51 2 4.440e+01 -2.116e-01 1.621e+00 0.33 0.33 0.33
52 1 4.268e+01 1.619e+00 1.446e+00 0.33 0.33 0.33
53 3 4.603e+01 -1.203e-01 -3.569e-01 0.33 0.33 0.33
54 1 4.802e+01 1.674e+00 -2.630e-01 0.33 0.33 0.34
55 1 4.795e+01 -1.283e-01 1.589e+00 0.33 0.34 0.33
56 1 4.622e+01 1.586e+00 1.502e+00 0.33 0.33 0.33
57 1 4.977e+01 -1.455e-01 -2.123e-01 0.33 0.33 0.34
58 1 5.152e+01 1.541e+00 -2.021e-01 0.33 0.32 0.34
59 2 5.141e+01 -2.884e-01 1.663e+00 0.33 0.33 0.34
60 3 4.967e+01 1.584e+00 1.524e+00 0.33 0.33 0.34
61 1 5.321e+01 -1.576e-01 -8.750e-02 0.33 0.32 0.34
62 3 5.505e+01 1.620e+00 6.025e-02 0.33 0.33 0.34
63 2 5.508e+01 -1.641e-01 1.752e+00 0.34 0.33 0.34
64 1 5.330e+01 1.659e+00 1.606e+00 0.34 0.33 0.34
65 1 5.687e+01 -2.636e-01 -2.552e-01 0.34 0.33 0.34
66 2 5.862e+01 1.635e+00 -2.321e-01 0.34 0.33 0.34
67 2 5.873e+01 -2.057e-01 1.502e+00 0.33 0.33 0.34
68 2 5.694e+01 1.542e+00 1.488e+00 0.33 0.33 0.34
69 3 6.045e+01 -2.611e-01 -1.604e-01 0.34 0.33 0.34
70 2 6.200e+01 1.765e+00 -1.697e-01 0.34 0.33 0.34
71 2 6.209e+01 -1.089e-01 1.672e+00 0.33 0.33 0.34
72 1 6.043e+01 1.637e+00 1.667e+00 0.33 0.33 0.34
73 1 6.397e+01 -1.733e-01 -2.252e-01 0.33 0.33 0.34
74 2 6.580e+01 1.698e+00 -1.587e-01 0.33 0.33 0.34
75 2 6.577e+01 -1.363e-01 1.601e+00 0.33 0.33 0.34
76 2 6.395e+01 1.610e+00 1.630e+00 0.33 0.33 0.34
77 2 6.764e+01 -1.250e-01 -3.393e-01 0.33 0.33 0.34
78 1 6.945e+01 1.530e+00 -2.676e-01 0.33 0.33 0.34
79 2 6.930e+01 -1.830e-01 1.572e+00 0.32 0.34 0.34
80 2 6.756e+01 1.670e+00 1.538e+00 0.32 0.34 0.34
81 1 7.114e+01 -1.285e-01 -2.675e-01 0.33 0.34 0.33
82 1 7.286e+01 1.577e+00 -3.352e-01 0.32 0.35 0.33
83 1 7.296e+01 -1.854e-01 1.509e+00 0.32 0.34 0.33
84 1 7.118e+01 1.581e+00 1.532e+00 0.32 0.34 0.34
85 1 7.477e+01 -1.556e-01 -2.480e-01 0.32 0.35 0.33
86 2 7.669e+01 1.581e+00 -2.345e-01 0.33 0.35 0.32
87 3 7.644e+01 -4.952e-02 1.537e+00 0.33 0.34 0.33
88 1 7.472e+01 1.767e+00 1.385e+00 0.33 0.34 0.33
89 3 7.837e+01 -1.993e-01 -2.248e-01 0.33 0.35 0.33
90 1 8.010e+01 1.690e+00 -2.347e-01 0.33 0.34 0.33
91 2 8.020e+01 -9.866e-02 1.612e+00 0.33 0.34 0.33
92 3 7.831e+01 1.617e+00 1.654e+00 0.33 0.35 0.33
93 1 8.191e+01 1.757e-02 -1.442e-01 0.33 0.34 0.33
94 1 8.367e+01 1.706e+00 -1.830e-01 0.33 0.35 0.32
95 2 8.370e+01 -9.446e-02 1.629e+00 0.33 0.34 0.33
96 3 8.206e+01 1.702e+00 1.575e+00 0.33 0.34 0.33
97 2 8.534e+01 -1.426e-01 -4.863e-02 0.33 0.34 0.33
98 1 8.717e+01 1.596e+00 -7.465e-02 0.33 0.34 0.33
99 2 8.722e+01 -1.229e-01 1.698e+00 0.32 0.34 0.34
100 3 8.555e+01 1.732e+00 1.653e+00 0.32 0.35 0.33
101 2 8.893e+01 -2.216e-01 -2.433e-01 0.33 0.34 0.33
102 1 9.077e+01 1.601e+00 -2.756e-01 0.33 0.34 0.33
103 3 9.070e+01 -3.050e-01 1.492e+00 0.32 0.34 0.34
104 2 8.913e+01 1.578e+00 1.666e+00 0.32 0.34 0.34
105 3 9.251e+01 -1.963e-01 -3.049e-01 0.33 0.34 0.33
106 1 9.431e+01 1.607e+00 -1.228e-01 0.32 0.35 0.33
107 1 9.431e+01 -8.051e-02 1.456e+00 0.32 0.35 0.33
108 1 9.248e+01 1.637e+00 1.672e+00 0.32 0.35 0.33
109 2 9.611e+01 -2.339e-01 -4.108e-01 0.32 0.34 0.33
110 2 9.793e+01 1.452e+00 -2.612e-01 0.33 0.34 0.33
111 2 9.772e+01 -8.110e-02 1.639e+00 0.32 0.35 0.33
112 3 9.619e+01 1.551e+00 1.613e+00 0.32 0.34 0.33
113 2 9.960e+01 -2.361e-01 -2.244e-01 0.33 0.34 0.33
114 2 1.015e+02 1.554e+00 -1.354e-01 0.33 0.34 0.33
115 2 1.015e+02 -2.209e-01 1.681e+00 0.33 0.34 0.33
116 1 9.961e+01 1.655e+00 1.532e+00 0.33 0.34 0.33
117 3 1.032e+02 -1.714e-01 -9.745e-02 0.33 0.34 0.33
118 2 1.050e+02 1.652e+00 -6.600e-02 0.33 0.34 0.33
119 1 1.052e+02 -2.431e-01 1.618e+00 0.33 0.34 0.33
120 2 1.032e+02 1.566e+00 1.659e+00 0.33 0.34 0.33
121 1 1.070e+02 -2.809e-01 -2.209e-01 0.33 0.34 0.33
122 1 1.086e+02 1.608e+00 -1.072e-01 0.33 0.34 0.33
123 2 1.086e+02 -2.060e-01 1.622e+00 0.33 0.34 0.33
124 3 1.067e+02 1.758e+00 1.605e+00 0.33 0.34 0.33
125 3 1.104e+02 -2.665e-01 -1.869e-01 0.33 0.33 0.33
126 2 1.120e+02 1.508e+00 -1.257e-01 0.33 0.34 0.33
127 2 1.123e+02 -3.605e-02 1.657e+00 0.33 0.33 0.33
128 3 1.104e+02 1.633e+00 1.630e+00 0.33 0.34 0.33
129 3 1.142e+02 -6.855e-02 -1.315e-01 0.33 0.34 0.34
130 2 1.159e+02 1.561e+00 -1.185e-01 0.33 0.34 0.33
131 3 1.159e+02 -9.967e-02 1.829e+00 0.33 0.33 0.33
132 3 1.140e+02 1.497e+00 1.622e+00 0.33 0.34 0.33
133 3 1.176e+02 -5.653e-02 -2.534e-01 0.33 0.34 0.33
134 2 1.193e+02 1.578e+00 -1.483e-01 0.33 0.34 0.33
135 1 1.192e+02 -1.301e-01 1.528e+00 0.33 0.33 0.33
136 3 1.175e+02 1.775e+00 1.670e+00 0.33 0.34 0.33
137 3 1.211e+02 -2.981e-01 -2.635e-01 0.34 0.33 0.33
138 3 1.228e+02 1.564e+00 -2.581e-01 0.34 0.33 0.33
139 1 1.229e+02 -1.735e-01 1.526e+00 0.34 0.33 0.33
140 1 1.211e+02 1.549e+00 1.661e+00 0.33 0.34 0.33
141 3 1.247e+02 -1.844e-01 -1.849e-01 0.34 0.33 0.33
142 1 1.265e+02 1.602e+00 -3.990e-01 0.34 0.33 0.33
143 1 1.265e+02 -2.067e-01 1.519e+00 0.33 0.33 0.34
144 1 1.248e+02 1.721e+00 1.543e+00 0.34 0.33 0.33
145 1 1.282e+02 -8.857e-02 -2.837e-01 0.33 0.33 0.33
146 1 1.300e+02 1.621e+00 -2.079e-01 0.33 0.33 0.33
147 3 1.299e+02 -1.587e-01 1.718e+00 0.33 0.33 0.33
148 1 1.282e+02 1.682e+00 1.490e+00 0.33 0.34 0.33
149 3 1.318e+02 -1.989e-01 -1.202e-01 0.34 0.33 0.33
150 3 1.335e+02 1.577e+00 -1.505e-01 0.34 0.33 0.33
151 2 1.336e+02 -1.153e-01 1.627e+00 0.34 0.33 0.33
152 3 1.318e+02 1.553e+00 1.728e+00 0.34 0.34 0.33
153 3 -1.542e-01 3.280e+00 -9.375e-02 0.34 0.33 0.33
154 3 1.540e+00 5.047e+00 -2.949e-01 0.34 0.33 0.33
155 3 1.658e+00 3.252e+00 1.408e+00 0.34 0.32 0.33
156 3 -1.255e-01 5.229e+00 1.648e+00 0.34 0.33 0.33
157 1 3.455e+00 3.304e+00 -1.855e-01 0.34 0.33 0.33
158 1 5.134e+00 5.151e+00 -3.208e-01 0.34 0.33 0.33
159 1 5.128e+00 3.342e+00 1.526e+00 0.34 0.33 0.33
160 1 3.345e+00 5.120e+00 1.515e+00 0.34 0.33 0.33
161 3 6.977e+00 3.421e+00 -8.151e-02 0.35 0.33 0.32
162 1 8.742e+00 5.169e+00 -2.657e-01 0.34 0.34 0.32
163 2 8.674e+00 3.311e+00 1.666e+00 0.34 0.33 0.32
164 2 6.996e+00 5.128e+00 1.502e+00 0.35 0.33 0.32
165 2 1.059e+01 3.273e+00 -1.928e-01 0.35 0.33 0.32
166 3 1.235e+01 5.165e+00 -2.197e-01 0.35 0.33 0.32
167 3 1.223e+01 3.183e+00 1.502e+00 0.34 0.33 0.32
168 1 1.053e+01 5.085e+00 1.568e+00 0.35 0.34 0.32
169 1 1.401e+01 3.351e+00 -2.538e-01 0.34 0.33 0.33
170 2 1.578e+01 5.138e+00 -7.561e-02 0.34 0.34 0.32
171 2 1.577e+01 3.384e+00 1.832e+00 0.34 0.33 0.32
172 3 1.398e+01 5.261e+00 1.489e+00 0.35 0.33 0.32
173 3 1.760e+01 3.504e+00 -5.782e-02 0.34 0.33 0.32
174 2 1.937e+01 5.237e+00 -5.473e-02 0.34 0.34 0.32
175 3 1.945e+01 3.369e+00 1.603e+00 0.34 0.34 0.32
176 1 1.764e+01 5.106e+00 1.756e+00 0.34 0.34 0.33
177 1 2.122e+01 3.284e+00 -8.683e-02 0.34 0.34 0.33
178 1 2.287e+01 5.231e+00 -1.245e-01 0.34 0.34 0.32
179 1 2.298e+01 3.408e+00 1.639e+00 0.34 0.34 0.32
180 3 2.107e+01 5.140e+00 1.585e+00 0.34 0.34 0.32
181 2 2.482e+01 3.332e+00 -6.319e-02 0.34 0.34 0.32
182 1 2.656e+01 5.232e+00 -1.252e-01 0.34 0.34 0.32
183 3 2.648e+01 3.342e+00 1.789e+00 0.34 0.33 0.33
184 1 2.461e+01 5.209e+00 1.603e+00 0.34 0.34 0.32
185 2 2.830e+01 3.398e+00 -1.027e-01 0.34 0.34 0.32
186 2 3.016e+01 5.307e+00 -2.394e-01 0.34 0.34 0.32
187 1 3.006e+01 3.450e+00 1.602e+00 0.33 0.34 0.33
188 2 2.840e+01 5.205e+00 1.567e+00 0.34 0.34 0.33
189 2 3.184e+01 3.411e+00 -3.107e-01 0.34 0.33 0.33
190 3 3.378e+01 5.149e+00 -2.609e-01 0.34 0.33 0.33
191 3 3.367e+01 3.250e+00 1.520e+00 0.34 0.33 0.33
192 1 3.193e+01 5.202e+00 1.676e+00 0.33 0.34 0.33
193 1 3.550e+01 3.424e+00 -1.498e-01 0.34 0.33 0.33
194 3 3.734e+01 5.121e+00 -1.785e-01 0.34 0.33 0.33
195 1 3.733e+01 3.405e+00 1.702e+00 0.34 0.33 0.34
196 2 3.547e+01 5.119e+00 1.672e+00 0.34 0.33 0.33
197 3 3.902e+01 3.365e+00 -3.216e-01 0.34 0.32 0.34
198 1 4.084e+01 5.158e+00 -1.785e-01 0.34 0.32 0.34
199 3 4.085e+01 3.403e+00 1.664e+00 0.34 0.33 0.34
200 3 3.917e+01 5.075e+00 1.764e+00 0.34 0.33 0.33
201 1 4.259e+01 3.412e+00 -2.027e-01 0.34 0.33 0.34
202 3 4.438e+01 5.289e+00 -1.846e-01 0.34 0.33 0.33
203 3 4.446e+01 3.399e+00 1.744e+00 0.33 0.34 0.33
204 1 4.265e+01 5.179e+00 1.599e+00 0.34 0.33 0.33
205 1 4.611e+01 3.462e+00 -1.842e-01 0.33 0.33 0.34
206 3 4.794e+01 5.193e+00 -1.038e-01 0.34 0.33 0.33
207 2 4.784e+01 3.508e+00 1.570e+00 0.34 0.33 0.33
208 3 4.609e+01 5.226e+00 1.680e+00 0.34 0.33 0.34
209 3 4.975e+01 3.441e+00 -3.272e-01 0.34 0.33 0.33
210 1 5.152e+01 5.193e+00 -2.310e-01 0.34 0.33 0.34
211 2 5.158e+01 3.392e+00 1.480e+00 0.34 0.33 0.34
212 2 4.974e+01 5.064e+00 1.584e+00 0.34 0.33 0.33
213 1 5.326e+01 3.375e+00 -2.286e-01 0.34 0.32 0.34
214 3 5.501e+01 5.166e+00 -1.831e-01 0.34 0.32 0.34
215 2 5.520e+01 3.333e+00 1.600e+00 0.33 0.32 0.34
216 3 5.334e+01 5.204e+00 1.505e+00 0.34 0.32 0.35
217 1 5.682e+01 3.540e+00 -1.812e-01 0.34 0.32 0.34
218 1 5.867e+01 5.308e+00 -3.223e-01 0.33 0.32 0.34
219 1 5.867e+01 3.358e+00 1.493e+00 0.33 0.33 0.34
220 2 5.676e+01 5.295e+00 1.479e+00 0.33 0.32 0.34
221 3 6.031e+01 3.518e+00 -3.628e-01 0.33 0.33 0.34
222 1 6.225e+01 5.089e+00 -2.348e-01 0.33 0.33 0.34
223 3 6.231e+01 3.264e+00 1.666e+00 0.33 0.33 0.34
224 3 6.041e+01 5.059e+00 1.511e+00 0.33 0.33 0.34
225 2 6.401e+01 3.453e+00 -2.545e-01 0.33 0.33 0.34
226 1 6.585e+01 5.232e+00 -1.484e-01 0.33 0.33 0.34
227 3 6.570e+01 3.300e+00 1.541e+00 0.33 0.33 0.34
228 1 6.395e+01 5.129e+00 1.485e+00 0.33 0.33 0.34
229 3 6.763e+01 3.488e+00 -3.691e-01 0.33 0.33 0.34
230 2 6.943e+01 5.245e+00 -4.513e-01 0.33 0.34 0.34
231 3 6.931e+01 3.431e+00 1.553e+00 0.32 0.34 0.34
232 3 6.770e+01 5.119e+00 1.491e+00 0.33 0.33 0.34
233 3 7.111e+01 3.379e+00 -3.537e-01 0.33 0.34 0.34
234 1 7.303e+01 5.152e+00 -3.384e-01 0.33 0.34 0.33
235 1 7.295e+01 3.351e+00 1.416e+00 0.32 0.34 0.33
236 2 7.119e+01 5.136e+00 1.493e+00 0.32 0.34 0.34
237 2 7.484e+01 3.416e+00 -3.862e-01 0.33 0.35 0.32
238 2 7.655e+01 5.125e+00 -3.061e-01 0.33 0.34 0.33
239 3 7.649e+01 3.459e+00 1.444e+00 0.33 0.34 0.32
240 3 7.467e+01 5.259e+00 1.524e+00 0.32 0.34 0.33
241 3 7.832e+01 3.342e+00 -2.792e-01 0.33 0.34 0.33
242 2 8.035e+01 5.095e+00 -2.168e-01 0.33 0.34 0.33
243 1 8.012e+01 3.367e+00 1.649e+00 0.32 0.35 0.33
244 3 7.830e+01 5.232e+00 1.471e+00 0.33 0.35 0.33
245 2 8.202e+01 3.506e+00 -3.344e-01 0.33 0.34 0.33
246 2 8.371e+01 5.262e+00 -3.145e-01 0.33 0.35 0.33
247 2 8.367e+01 3.531e+00 1.553e+00 0.33 0.35 0.33
248 3 8.195e+01 5.170e+00 1.529e+00 0.32 0.35 0.33
249 2 8.532e+01 3.495e+00 -2.468e-01 0.32 0.35 0.33
250 2 8.726e+01 5.196e+00 -3.647e-01 0.33 0.35 0.32
251 1 8.726e+01 3.298e+00 1.523e+00 0.32 0.35 0.33
252 2 8.551e+01 5.191e+00 1.612e+00 0.32 0.35 0.33
253 1 8.900e+01 3.401e+00 -2.197e-01 0.33 0.34 0.33
254 3 9.077e+01 5.159e+00 -6.980e-02 0.33 0.34 0.32
255 1 9.077e+01 3.392e+00 1.779e+00 0.33 0.35 0.33
256 3 8.893e+01 5.179e+00 1.569e+00 0.33 0.34 0.33
257 1 9.251e+01 3.453e+00 -1.703e-01 0.32 0.35 0.33
258 1 9.429e+01 5.057e+00 -2.816e-01 0.32 0.35 0.33
259 1 9.432e+01 3.477e+00 1.595e+00 0.32 0.35 0.33
260 3 9.269e+01 5.300e+00 1.609e+00 0.33 0.35 0.32
261 2 9.631e+01 3.359e+00 -1.471e-01 0.32 0.34 0.33
262 1 9.804e+01 5.130e+00 -7.974e-02 0.32 0.35 0.33
263 2 9.798e+01 3.417e+00 1.838e+00 0.33 0.34 0.33
264 3 9.613e+01 5.117e+00 1.502e+00 0.32 0.35 0.33
265 3 9.983e+01 3.382e+00 -5.469e-03 0.33 0.34 0.33
266 3 1.016e+02 5.117e+00 -7.090e-02 0.33 0.35 0.33
267 2 1.016e+02 3.303e+00 1.602e+00 0.33 0.34 0.33
268 2 9.982e+01 5.228e+00 1.679e+00 0.33 0.35 0.33
269 2 1.033e+02 3.425e+00 -4.659e-02 0.32 0.34 0.33
270 1 1.051e+02 5.201e+00 -1.598e-01 0.32 0.35 0.33
271 3 1.050e+02 3.433e+00 1.508e+00 0.33 0.34 0.33
272 3 1.032e+02 5.057e+00 1.739e+00 0.33 0.35 0.32
273 2 1.069e+02 3.382e+00 -1.772e-01 0.33 0.34 0.33
274 3 1.087e+02 5.146e+00 -1.019e-01 0.32 0.34 0.33
275 1 1.087e+02 3.394e+00 1.681e+00 0.33 0.34 0.33
276 3 1.069e+02 5.136e+00 1.690e+00 0.33 0.34 0.33
277 2 1.106e+02 3.496e+00 -7.112e-02 0.33 0.34 0.33
278 3 1.124e+02 5.145e+00 -2.385e-01 0.32 0.35 0.33
279 3 1.122e+02 3.416e+00 1.714e+00 0.33 0.34 0.33
280 1 1.105e+02 5.356e+00 1.616e+00 0.32 0.34 0.33
281 3 1.140e+02 3.383e+00 -1.969e-01 0.33 0.34 0.33
282 2 1.157e+02 5.132e+00 -1.398e-01 0.32 0.34 0.34
283 1 1.156e+02 3.454e+00 1.576e+00 0.33 0.34 0.33
284 3 1.141e+02 5.247e+00 1.554e+00 0.32 0.35 0.33
285 1 1.176e+02 3.436e+00 -2.286e-01 0.33 0.34 0.33
286 3 1.194e+02 5.026e+00 -2.208e-01 0.32 0.34 0.33
287 2 1.194e+02 3.285e+00 1.883e+00 0.33 0.34 0.33
288 3 1.174e+02 5.060e+00 1.592e+00 0.33 0.34 0.33
289 1 1.212e+02 3.423e+00 -2.561e-02 0.33 0.34 0.33
290 2 1.230e+02 5.205e+00 -2.456e-01 0.33 0.34 0.33
291 2 1.228e+02 3.517e+00 1.731e+00 0.33 0.34 0.33
292 3 1.212e+02 5.265e+00 1.553e+00 0.33 0.34 0.33
293 3 1.247e+02 3.456e+00 -1.442e-01 0.34 0.33 0.33
294 1 1.266e+02 5.213e+00 -1.996e-01 0.34 0.33 0.33
295 2 1.265e+02 3.488e+00 1.692e+00 0.34 0.33 0.33
296 2 1.246e+02 5.389e+00 1.416e+00 0.34 0.33 0.33
297 3 1.283e+02 3.345e+00 -2.475e-01 0.34 0.33 0.33
298 3 1.300e+02 5.158e+00 -3.009e-01 0.34 0.33 0.33
299 2 1.300e+02 3.302e+00 1.637e+00 0.33 0.34 0.33
300 3 1.284e+02 5.161e+00 1.461e+00 0.33 0.34 0.33
301 3 1.318e+02 3.595e+00 -2.841e-01 0.34 0.33 0.33
302 2 1.337e+02 5.091e+00 -1.680e-01 0.34 0.33 0.32
303 3 1.335e+02 3.461e+00 1.612e+00 0.34 0.33 0.33
304 3 1.317e+02 5.032e+00 1.587e+00 0.34 0.33 0.33
305 3 -2.556e-01 6.771e+00 -1.534e-01 0.34 0.34 0.33
306 3 1.654e+00 8.757e+00 -1.060e-01 0.34 0.34 0.32
307 1 1.565e+00 6.913e+00 1.728e+00 0.34 0.33 0.33
308 1 -2.548e-01 8.638e+00 1.631e+00 0.34 0.34 0.33
309 2 3.322e+00 6.992e+00 -6.225e-02 0.34 0.33 0.33
310 1 5.138e+00 8.773e+00 -2.399e-01 0.34 0.33 0.32
311 3 5.083e+00 6.955e+00 1.624e+00 0.34 0.33 0.33
312 3 3.329e+00 8.823e+00 1.562e+00 0.34 0.33 0.32
313 3 6.894e+00 6.809e+00 -2.633e-01 0.35 0.33 0.32
314 3 8.664e+00 8.627e+00 -2.638e-01 0.34 0.34 0.32
315 3 8.734e+00 6.799e+00 1.493e+00 0.35 0.34 0.31
316 3 6.973e+00 8.558e+00 1.521e+00 0.35 0.34 0.32
317 1 1.045e+01 6.840e+00 -2.126e-01 0.34 0.34 0.31
318 1 1.213e+01 8.725e+00 -2.547e-01 0.34 0.34 0.32
319 1 1.220e+01 6.988e+00 1.604e+00 0.34 0.34 0.32
320 2 1.032e+01 8.746e+00 1.503e+00 0.34 0.34 0.32
321 1 1.390e+01 6.956e+00 -3.186e-01 0.34 0.34 0.32
322 2 1.581e+01 8.660e+00 -2.955e-01 0.34 0.33 0.32
323 3 1.576e+01 6.840e+00 1.558e+00 0.34 0.34 0.32
324 1 1.405e+01 8.637e+00 1.351e+00 0.34 0.33 0.32
325 1 1.771e+01 6.852e+00 -1.720e-01 0.35 0.33 0.32
326 3 1.946e+01 8.791e+00 -1.840e-01 0.34 0.33 0.32
327 3 1.948e+01 6.908e+00 1.676e+00 0.34 0.34 0.32
328 3 1.752e+01 8.806e+00 1.341e+00 0.34 0.33 0.32
329 3 2.113e+01 7.053e+00 -6.825e-02 0.34 0.34 0.32
330 1 2.296e+01 8.994e+00 -2.634e-01 0.34 0.34 0.32
331 3 2.285e+01 7.143e+00 1.594e+00 0.34 0.34 0.32
332 2 2.112e+01 8.886e+00 1.644e+00 0.34 0.34 0.32
333 1 2.472e+01 6.989e+00 -5.713e-02 0.34 0.33 0.32
334 3 2.659e+01 8.739e+00 -2.041e-01 0.34 0.34 0.33
335 2 2.670e+01 6.989e+00 1.425e+00 0.33 0.34 0.33
336 1 2.489e+01 8.766e+00 1.608e+00 0.34 0.34 0.32
337 2 2.848e+01 6.949e+00 -2.543e-01 0.33 0.34 0.33
338 1 3.017e+01 8.750e+00 -2.561e-01 0.34 0.34 0.33
339 2 3.032e+01 6.998e+00 1.567e+00 0.34 0.34 0.33
340 1 2.830e+01 8.747e+00 1.544e+00 0.33 0.34 0.33
341 3 3.202e+01 6.952e+00 -1.777e-01 0.34 0.33 0.33
342 1 3.370e+01 8.757e+00 -9.033e-02 0.34 0.33 0.33
343 3 3.377e+01 6.898e+00 1.586e+00 0.34 0.33 0.33
344 2 3.189e+01 8.645e+00 1.601e+00 0.34 0.33 0.33
345 2 3.556e+01 6.960e+00 -2.856e-01 0.34 0.33 0.33
346 2 3.727e+01 8.825e+00 -2.862e-01 0.34 0.33 0.33
347 3 3.723e+01 6.979e+00 1.351e+00 0.34 0.33 0.33
348 2 3.547e+01 8.750e+00 1.556e+00 0.34 0.33 0.33
349 3 3.902e+01 7.061e+00 -2.488e-01 0.34 0.33 0.33
350 1 4.087e+01 8.763e+00 -1.041e-01 0.34 0.33 0.33
351 2 4.073e+01 6.923e+00 1.590e+00 0.34 0.33 0.33
352 1 3.897e+01 8.775e+00 1.634e+00 0.34 0.33 0.33
353 2 4.254e+01 6.958e+00 -1.787e-01 0.34 0.32 0.33
354 2 4.430e+01 8.815e+00 -1.687e-01 0.34 0.32 0.33
355 2 4.450e+01 6.900e+00 1.530e+00 0.34 0.33 0.33
356 3 4.255e+01 8.694e+00 1.675e+00 0.34 0.33 0.33
357 2 4.606e+01 6.999e+00 -2.157e-01 0.34 0.33 0.33
358 2 4.809e+01 8.676e+00 -2.182e-01 0.34 0.33 0.33
359 3 4.797e+01 7.037e+00 1.629e+00 0.34 0.33 0.33
360 1 4.626e+01 8.771e+00 1.593e+00 0.34 0.32 0.33
361 2 4.959e+01 6.853e+00 -1.363e-01 0.34 0.32 0.34
362 1 5.159e+01 8.737e+00 -2.472e-01 0.34 0.32 0.34
363 2 5.148e+01 6.898e+00 1.528e+00 0.34 0.33 0.34
364 2 4.979e+01 8.773e+00 1.538e+00 0.34 0.33 0.33
365 2 5.332e+01 6.975e+00 -2.528e-01 0.34 0.32 0.34
366 1 5.502e+01 8.966e+00 -4.249e-01 0.33 0.33 0.34
367 2 5.507e+01 7.040e+00 1.555e+00 0.33 0.32 0.34
368 1 5.331e+01 8.751e+00 1.429e+00 0.34 0.32 0.34
369 3 5.679e+01 7.060e+00 -2.080e-01 0.33 0.32 0.35
370 1 5.859e+01 8.798e+00 -1.937e-01 0.32 0.33 0.35
371 1 5.863e+01 6.969e+00 1.573e+00 0.33 0.32 0.35
372 2 5.680e+01 8.773e+00 1.511e+00 0.33 0.32 0.35
373 1 6.048e+01 6.862e+00 -3.264e-01 0.33 0.33 0.34
374 3 6.232e+01 8.713e+00 -2.532e-01 0.33 0.33 0.34
375 3 6.214e+01 6.949e+00 1.512e+00 0.33 0.34 0.34
376 2 6.070e+01 8.734e+00 1.419e+00 0.33 0.33 0.35
377 3 6.394e+01 6.785e+00 -3.821e-01 0.34 0.33 0.34
378 1 6.572e+01 8.642e+00 -1.685e-01 0.33 0.33 0.34
379 3 6.580e+01 6.887e+00 1.589e+00 0.33 0.33 0.34
380 3 6.403e+01 8.740e+00 1.521e+00 0.33 0.33 0.34
381 2 6.763e+01 6.942e+00 -1.340e-01 0.33 0.33 0.34
382 2 6.949e+01 8.810e+00 -3.315e-01 0.33 0.33 0.34
383 2 6.944e+01 6.860e+00 1.521e+00 0.32 0.34 0.34
384 3 6.771e+01 8.611e+00 1.512e+00 0.33 0.34 0.34
385 1 7.126e+01 6.963e+00 -3.400e-01 0.32 0.34 0.34
386 3 7.285e+01 8.634e+00 -3.135e-01 0.32 0.35 0.33
387 3 7.277e+01 6.908e+00 1.579e+00 0.32 0.34 0.34
388 3 7.111e+01 8.780e+00 1.548e+00 0.32 0.34 0.33
389 3 7.491e+01 6.902e+00 -2.693e-01 0.33 0.35 0.33
390 2 7.644e+01 8.708e+00 -2.288e-01 0.33 0.34 0.33
391 3 7.638e+01 6.971e+00 1.576e+00 0.33 0.34 0.33
392 2 7.464e+01 8.647e+00 1.557e+00 0.32 0.35 0.33
393 3 7.832e+01 6.855e+00 -2.477e-01 0.33 0.34 0.33
394 1 8.025e+01 8.611e+00 -2.467e-01 0.33 0.34 0.33
395 1 8.007e+01 6.897e+00 1.588e+00 0.33 0.34 0.33
396 3 7.844e+01 8.596e+00 1.556e+00 0.33 0.34 0.33
397 3 8.210e+01 6.950e+00 -1.758e-01 0.33 0.34 0.33
398 1 8.375e+01 8.690e+00 -2.344e-01 0.32 0.35 0.33
399 2 8.366e+01 6.822e+00 1.546e+00 0.32 0.35 0.33
400 3 8.193e+01 8.681e+00 1.743e+00 0.33 0.35 0.33
401 3 8.544e+01 6.830e+00 -2.423e-01 0.33 0.34 0.33
402 1 8.715e+01 8.684e+00 -1.923e-01 0.33 0.35 0.32
403 3 8.723e+01 6.908e+00 1.805e+00 0.33 0.35 0.32
404 1 8.549e+01 8.605e+00 1.546e+00 0.32 0.35 0.33
405 3 8.895e+01 6.995e+00 -3.815e-01 0.33 0.35 0.32
406 3 9.067e+01 8.854e+00 -2.548e-01 0.33 0.35 0.33
407 3 9.061e+01 6.933e+00 1.642e+00 0.33 0.35 0.32
408 1 8.896e+01 8.732e+00 1.570e+00 0.33 0.35 0.33
409 3 9.250e+01 6.932e+00 -2.522e-01 0.33 0.35 0.32
410 1 9.425e+01 8.791e+00 -3.242e-01 0.33 0.35 0.32
411 2 9.452e+01 6.960e+00 1.222e+00 0.33 0.35 0.32
412 1 9.250e+01 8.603e+00 1.454e+00 0.33 0.35 0.32
413 3 9.611e+01 7.042e+00 -5.118e-01 0.32 0.35 0.33
414 3 9.800e+01 8.762e+00 -2.195e-01 0.33 0.35 0.32
415 1 9.798e+01 7.067e+00 1.465e+00 0.32 0.35 0.33
416 1 9.614e+01 8.803e+00 1.389e+00 0.33 0.35 0.32
417 3 9.985e+01 6.771e+00 -1.866e-01 0.33 0.35 0.33
418 2 1.015e+02 8.652e+00 -2.102e-01 0.33 0.35 0.32
419 2 1.016e+02 6.968e+00 1.543e+00 0.32 0.35 0.33
420 2 9.976e+01 8.707e+00 1.454e+00 0.33 0.35 0.32
421 3 1.032e+02 6.976e+00 -2.846e-01 0.33 0.35 0.32
422 3 1.050e+02 8.702e+00 -2.559e-01 0.33 0.34 0.33
423 2 1.048e+02 6.954e+00 1.617e+00 0.33 0.35 0.32
424 3 1.033e+02 8.808e+00 1.646e+00 0.33 0.35 0.32
425 3 1.068e+02 6.841e+00 -1.193e-01 0.33 0.35 0.33
426 1 1.085e+02 8.678e+00 -2.072e-01 0.32 0.35 0.33
427 1 1.086e+02 6.992e+00 1.599e+00 0.32 0.34 0.33
428 1 1.068e+02 8.790e+00 1.624e+00 0.33 0.34 0.33
429 3 1.104e+02 7.080e+00 -1.060e-01 0.32 0.35 0.33
430 2 1.123e+02 8.768e+00 -2.720e-01 0.32 0.35 0.33
431 1 1.123e+02 7.035e+00 1.654e+00 0.32 0.34 0.33
432 3 1.105e+02 8.819e+00 1.634e+00 0.32 0.35 0.33
433 2 1.140e+02 7.022e+00 -2.575e-01 0.32 0.35 0.33
434 2 1.159e+02 8.756e+00 -1.359e-01 0.32 0.35 0.33
435 2 1.159e+02 6.918e+00 1.543e+00 0.32 0.35 0.33
436 2 1.141e+02 8.790e+00 1.689e+00 0.32 0.35 0.33
437 2 1.177e+02 7.003e+00 -3.288e-02 0.32 0.34 0.33
438 2 1.193e+02 8.850e+00 -1.474e-01 0.32 0.34 0.33
439 3 1.193e+02 6.978e+00 1.619e+00 0.32 0.34 0.33
440 2 1.175e+02 8.819e+00 1.634e+00 0.32 0.34 0.34
441 3 1.212e+02 7.084e+00 -2.541e-01 0.32 0.34 0.33
442 3 1.230e+02 8.805e+00 -2.626e-01 0.33 0.34 0.34
443 2 1.228e+02 7.062e+00 1.583e+00 0.33 0.34 0.33
444 1 1.211e+02 8.829e+00 1.698e+00 0.33 0.34 0.33
445 3 1.246e+02 7.059e+00 -1.512e-01 0.33 0.33 0.34
446 2 1.265e+02 8.667e+00 -1.834e-01 0.33 0.33 0.34
447 1 1.265e+02 7.026e+00 1.613e+00 0.33 0.33 0.34
448 1 1.246e+02 8.661e+00 1.574e+00 0.33 0.33 0.34
449 3 1.283e+02 7.100e+00 -2.010e-01 0.33 0.33 0.34
450 3 1.301e+02 8.838e+00 -2.170e-01 0.34 0.34 0.33
451 2 1.301e+02 6.952e+00 1.585e+00 0.33 0.34 0.33
452 3 1.283e+02 8.858e+00 1.532e+00 0.34 0.33 0.33
453 3 1.319e+02 6.758e+00 -2.331e-01 0.34 0.34 0.33
454 3 1.335e+02 8.780e+00 -6.914e-02 0.34 0.34 0.32
455 1 1.335e+02 6.920e+00 1.621e+00 0.34 0.33 0.33
456 3 1.316e+02 8.733e+00 1.657e+00 0.34 0.34 0.33
457 3 -3.467e-01 1.051e+01 -1.504e-02 0.34 0.34 0.33
458 3 1.540e+00 1.223e+01 -1.862e-01 0.34 0.34 0.32
459 2 1.506e+00 1.044e+01 1.710e+00 0.34 0.33 0.33
460 1 -1.967e-01 1.225e+01 1.705e+00 0.33 0.34 0.33
461 2 3.383e+00 1.061e+01 -1.347e-01 0.34 0.33 0.32
462 2 5.146e+00 1.228e+01 -3.445e-01 0.35 0.33 0.32
463 1 5.152e+00 1.061e+01 1.489e+00 0.34 0.33 0.32
464 3 3.465e+00 1.223e+01 1.644e+00 0.35 0.33 0.32
465 3 6.962e+00 1.047e+01 -2.002e-01 0.34 0.34 0.32
466 3 8.620e+00 1.238e+01 -2.272e-01 0.34 0.34 0.32
467 2 8.581e+00 1.052e+01 1.627e+00 0.34 0.34 0.32
468 1 6.856e+00 1.235e+01 1.621e+00 0.35 0.33 0.32
469 3 1.032e+01 1.047e+01 -2.100e-01 0.34 0.34 0.32
470 2 1.218e+01 1.209e+01 -1.347e-01 0.34 0.34 0.32
471 2 1.229e+01 1.041e+01 1.506e+00 0.34 0.34 0.32
472 2 1.030e+01 1.224e+01 1.658e+00 0.34 0.34 0.32
473 3 1.413e+01 1.061e+01 -2.773e-01 0.34 0.34 0.32
474 2 1.597e+01 1.231e+01 -1.455e-01 0.34 0.33 0.33
475 3 1.584e+01 1.050e+01 1.553e+00 0.34 0.34 0.33
476 2 1.398e+01 1.222e+01 1.429e+00 0.34 0.34 0.32
477 2 1.757e+01 1.055e+01 -2.459e-01 0.34 0.33 0.33
478 3 1.943e+01 1.239e+01 -1.610e-01 0.34 0.33 0.33
479 2 1.927e+01 1.056e+01 1.653e+00 0.34 0.33 0.33
480 2 1.762e+01 1.239e+01 1.662e+00 0.34 0.33 0.33
481 2 2.111e+01 1.053e+01 -2.965e-01 0.35 0.33 0.32
482 1 2.293e+01 1.231e+01 -2.450e-01 0.34 0.33 0.33
483 2 2.310e+01 1.051e+01 1.582e+00 0.33 0.34 0.33
484 1 2.121e+01 1.219e+01 1.662e+00 0.34 0.34 0.33
485 1 2.476e+01 1.054e+01 -1.076e-01 0.33 0.34 0.33
486 1 2.658e+01 1.231e+01 -2.088e-01 0.33 0.34 0.33
487 2 2.662e+01 1.051e+01 1.604e+00 0.34 0.34 0.32
488 2 2.488e+01 1.225e+01 1.640e+00 0.34 0.34 0.32
489 2 2.835e+01 1.056e+01 -2.563e-01 0.33 0.34 0.33
490 3 3.015e+01 1.229e+01 -3.212e-01 0.33 0.34 0.33
491 1 3.020e+01 1.038e+01 1.573e+00 0.34 0.34 0.33
492 1 2.850e+01 1.232e+01 1.452e+00 0.34 0.33 0.33
493 2 3.192e+01 1.056e+01 -3.442e-01 0.34 0.34 0.33
494 1 3.373e+01 1.226e+01 -8.561e-02 0.33 0.34 0.33
495 1 3.376e+01 1.053e+01 1.536e+00 0.34 0.34 0.33
496 1 3.186e+01 1.224e+01 1.592e+00 0.33 0.34 0.33
497 3 3.553e+01 1.054e+01 -2.341e-01 0.34 0.33 0.33
498 1 3.736e+01 1.228e+01 -1.689e-01 0.34 0.33 0.33
499 2 3.728e+01 1.057e+01 1.560e+00 0.34 0.33 0.33
500 2 3.561e+01 1.231e+01 1.494e+00 0.33 0.33 0.33
501 2 3.910e+01 1.041e+01 -2.000e-01 0.34 0.33 0.33
502 1 4.078e+01 1.229e+01 -1.378e-01 0.34 0.33 0.33
503 1 4.087e+01 1.045e+01 1.493e+00 0.34 0.33 0.33
504 2 3.901e+01 1.226e+01 1.597e+00 0.34 0.33 0.33
505 2 4.264e+01 1.051e+01 -2.392e-01 0.34 0.33 0.33
506 3 4.438e+01 1.248e+01 -2.884e-01 0.34 0.32 0.33
507 2 4.438e+01 1.057e+01 1.639e+00 0.34 0.33 0.33
508 3 4.251e+01 1.232e+01 1.609e+00 0.34 0.33 0.33
509 1 4.600e+01 1.059e+01 -2.614e-01 0.34 0.33 0.33
510 3 4.781e+01 1.237e+01 -1.443e-01 0.34 0.33 0.33
511 2 4.798e+01 1.056e+01 1.390e+00 0.35 0.33 0.33
512 3 4.602e+01 1.229e+01 1.649e+00 0.34 0.33 0.33
513 3 4.974e+01 1.049e+01 -1.536e-01 0.35 0.32 0.33
514 3 5.155e+01 1.239e+01 -1.059e-01 0.35 0.32 0.33
515 2 5.159e+01 1.045e+01 1.553e+00 0.34 0.32 0.33
516 2 4.977e+01 1.215e+01 1.396e+00 0.34 0.32 0.33
517 2 5.333e+01 1.072e+01 -2.742e-01 0.34 0.32 0.33
518 2 5.516e+01 1.237e+01 -1.173e-01 0.34 0.33 0.34
519 3 5.512e+01 1.055e+01 1.447e+00 0.34 0.32 0.34
520 3 5.339e+01 1.231e+01 1.472e+00 0.35 0.32 0.33
521 2 5.689e+01 1.055e+01 -3.964e-01 0.33 0.32 0.35
522 1 5.863e+01 1.221e+01 -2.351e-01 0.33 0.33 0.34
523 3 5.872e+01 1.056e+01 1.552e+00 0.33 0.33 0.35
524 1 5.691e+01 1.225e+01 1.589e+00 0.34 0.33 0.34
525 3 6.044e+01 1.037e+01 -2.779e-01 0.33 0.33 0.34
526 1 6.228e+01 1.233e+01 -2.046e-01 0.33 0.33 0.34
527 1 6.223e+01 1.059e+01 1.483e+00 0.33 0.33 0.35
528 2 6.024e+01 1.224e+01 1.606e+00 0.33 0.33 0.34
529 2 6.405e+01 1.051e+01 -2.708e-01 0.33 0.33 0.34
530 2 6.580e+01 1.223e+01 -1.847e-01 0.33 0.33 0.34
531 2 6.584e+01 1.037e+01 1.470e+00 0.33 0.33 0.34
532 1 6.402e+01 1.231e+01 1.568e+00 0.33 0.33 0.34
533 3 6.763e+01 1.050e+01 -2.789e-01 0.33 0.34 0.33
534 2 6.944e+01 1.238e+01 -1.572e-01 0.33 0.34 0.34
535 2 6.933e+01 1.050e+01 1.612e+00 0.33 0.34 0.33
536 2 6.766e+01 1.221e+01 1.487e+00 0.33 0.33 0.34
537 3 7.109e+01 1.051e+01 -1.973e-01 0.32 0.34 0.33
538 2 7.288e+01 1.230e+01 -1.613e-01 0.32 0.34 0.33
539 2 7.289e+01 1.054e+01 1.492e+00 0.32 0.34 0.33
540 3 7.109e+01 1.225e+01 1.660e+00 0.32 0.34 0.33
541 1 7.475e+01 1.061e+01 -1.072e-01 0.32 0.34 0.33
542 2 7.664e+01 1.235e+01 -2.152e-01 0.33 0.34 0.33
543 2 7.655e+01 1.053e+01 1.562e+00 0.33 0.34 0.33
544 3 7.478e+01 1.229e+01 1.624e+00 0.32 0.34 0.34
545 1 7.832e+01 1.047e+01 -1.525e-01 0.33 0.34 0.33
546 3 8.018e+01 1.223e+01 -2.790e-01 0.33 0.35 0.33
547 1 8.014e+01 1.046e+01 1.491e+00 0.33 0.35 0.33
548 1 7.824e+01 1.227e+01 1.474e+00 0.33 0.34 0.33
549 1 8.200e+01 1.056e+01 -3.253e-01 0.32 0.35 0.33
550 3 8.381e+01 1.223e+01 -2.621e-01 0.33 0.35 0.33
551 1 8.375e+01 1.055e+01 1.513e+00 0.32 0.35 0.33
552 1 8.201e+01 1.225e+01 1.572e+00 0.32 0.35 0.33
553 3 8.557e+01 1.060e+01 -3.390e-01 0.33 0.35 0.32
554 2 8.721e+01 1.240e+01 -3.003e-01 0.33 0.34 0.33
555 2 8.729e+01 1.054e+01 1.467e+00 0.33 0.35 0.33
556 3 8.558e+01 1.226e+01 1.608e+00 0.33 0.35 0.32
557 3 8.889e+01 1.066e+01 -2.270e-01 0.33 0.35 0.32
558 1 9.069e+01 1.244e+01 -2.639e-01 0.32 0.36 0.33
559 1 9.070e+01 1.062e+01 1.450e+00 0.33 0.35 0.32
560 3 8.894e+01 1.248e+01 1.553e+00 0.32 0.35 0.33
561 2 9.241e+01 1.069e+01 -5.098e-02 0.32 0.35 0.32
562 3 9.421e+01 1.225e+01 -3.180e-01 0.33 0.35 0.32
563 2 9.426e+01 1.053e+01 1.408e+00 0.33 0.35 0.32
564 3 9.256e+01 1.241e+01 1.601e+00 0.33 0.35 0.32
565 1 9.609e+01 1.060e+01 -3.592e-01 0.33 0.35 0.32
567 2 9.805e+01 1.058e+01 1.495e+00 0.33 0.35 0.32
569 3 9.973e+01 1.050e+01 -2.317e-01 0.33 0.35 0.32
571 2 1.014e+02 1.055e+01 1.502e+00 0.33 0.35 0.32
573 1 1.034e+02 1.054e+01 -2.051e-01 0.33 0.35 0.33
575 1 1.050e+02 1.052e+01 1.713e+00 0.33 0.35 0.33
577 3 1.068e+02 1.062e+01 -1.606e-01 0.32 0.35 0.32
579 2 1.087e+02 1.051e+01 1.511e+00 0.32 0.35 0.33
581 1 1.104e+02 1.044e+01 -2.328e-01 0.32 0.35 0.33
583 2 1.123e+02 1.051e+01 1.417e+00 0.32 0.34 0.33
585 3 1.140e+02 1.028e+01 -1.646e-01 0.32 0.35 0.33
587 2 1.158e+02 1.056e+01 1.669e+00 0.32 0.34 0.33