ITEM: TIMESTEP
0
ITEM: NUMBER OF ATOMS
1000
ITEM: BOX BOUNDS xy xz yz pp pp pp
                     -1.07932532587128e+00 1.35599325325872e+02 0.00000000000000e+00
-1.07932532587128e+00	1.35599325325872e+02	0.00000000000000e+00
-1.07932532587128e+00	1.35599325325872e+02	0.00000000000000e+00
ITEM: ATOMS id type x y z p1 p2 p3
1 2 -6.915e-01 -7.147e-01 -7.130e-01 0.33 0.34 0.33
2 1 9.348e-01 1.209e+00 -7.957e-01 0.32 0.34 0.33
3 3 9.188e-01 -8.705e-01 1.218e+00 0.32 0.34 0.33
4 1 -6.956e-01 9.425e-01 1.197e+00 0.32 0.35 0.33
5 3 2.802e+00 -5.954e-01 -4.819e-01 0.33 0.34 0.33
6 1 4.649e+00 1.297e+00 -7.384e-01 0.33 0.34 0.33
7 1 4.525e+00 -8.815e-01 9.968e-01 0.32 0.34 0.34
8 3 2.583e+00 1.162e+00 1.351e+00 0.32 0.34 0.34
9 2 6.448e+00 -5.672e-01 -7.857e-01 0.32 0.34 0.34
10 3 7.970e+00 1.195e+00 -4.852e-01 0.32 0.34 0.34
11 3 8.261e+00 -6.486e-01 1.115e+00 0.32 0.34 0.34
12 3 6.216e+00 8.752e-01 1.296e+00 0.32 0.34 0.34
13 3 9.828e+00 -6.864e-01 -9.057e-01 0.32 0.35 0.34
14 1 1.175e+01 9.838e-01 -8.361e-01 0.32 0.34 0.34
15 2 1.180e+01 -9.794e-01 1.007e+00 0.32 0.34 0.35
16 2 1.004e+01 8.779e-01 9.682e-01 0.32 0.34 0.34
17 1 1.349e+01 -6.126e-01 -6.757e-01 0.32 0.33 0.35
18 2 1.538e+01 9.624e-01 -6.628e-01 0.32 0.33 0.35
19 1 1.554e+01 -8.206e-01 1.219e+00 0.32 0.33 0.35
20 1 1.379e+01 8.805e-01 1.193e+00 0.32 0.33 0.35
21 2 1.711e+01 -8.329e-01 -5.440e-01 0.32 0.33 0.35
22 2 1.881e+01 9.580e-01 -7.369e-01 0.32 0.33 0.35
23 3 1.872e+01 -6.882e-01 9.866e-01 0.32 0.33 0.35
24 1 1.714e+01 9.761e-01 1.258e+00 0.32 0.33 0.35
25 1 2.079e+01 -8.943e-01 -8.200e-01 0.32 0.34 0.35
26 2 2.257e+01 8.556e-01 -8.465e-01 0.32 0.34 0.34
27 1 2.253e+01 -7.927e-01 9.337e-01 0.32 0.33 0.35
28 3 2.078e+01 8.946e-01 9.448e-01 0.32 0.33 0.35
29 3 2.431e+01 -7.722e-01 -1.028e+00 0.32 0.33 0.34
30 1 2.607e+01 8.970e-01 -6.986e-01 0.32 0.33 0.34
31 1 2.632e+01 -8.341e-01 9.334e-01 0.33 0.33 0.34
32 2 2.409e+01 7.277e-01 9.112e-01 0.33 0.33 0.34
33 3 2.823e+01 -6.574e-01 -9.080e-01 0.33 0.33 0.34
34 3 3.007e+01 1.040e+00 -7.771e-01 0.33 0.33 0.34
35 3 2.982e+01 -1.005e+00 1.006e+00 0.34 0.33 0.33
36 2 2.806e+01 9.596e-01 1.005e+00 0.33 0.33 0.34
37 2 3.153e+01 -8.554e-01 -6.970e-01 0.33 0.33 0.34
38 3 3.316e+01 9.459e-01 -6.924e-01 0.34 0.32 0.33
39 3 3.328e+01 -6.680e-01 9.656e-01 0.34 0.33 0.33
40 2 3.148e+01 9.368e-01 1.062e+00 0.34 0.32 0.33
41 3 3.539e+01 -9.167e-01 -8.296e-01 0.35 0.33 0.32
42 3 3.684e+01 1.036e+00 -7.543e-01 0.35 0.33 0.32
43 1 3.677e+01 -6.265e-01 1.086e+00 0.34 0.33 0.32
44 1 3.503e+01 9.791e-01 9.289e-01 0.34 0.33 0.33
45 2 3.852e+01 -6.530e-01 -5.363e-01 0.35 0.33 0.32
46 3 4.039e+01 8.218e-01 -6.822e-01 0.35 0.33 0.32
47 1 4.068e+01 -7.072e-01 1.097e+00 0.35 0.34 0.32
48 2 3.895e+01 1.046e+00 1.104e+00 0.35 0.34 0.32
49 2 4.248e+01 -7.447e-01 -7.045e-01 0.35 0.34 0.32
50 2 4.410e+01 9.419e-01 -9.058e-01 0.34 0.34 0.32
51 3 4.420e+01 -9.116e-01 1.121e+00 0.35 0.33 0.32
52 3 4.259e+01 1.049e+00 1.132e+00 0.34 0.33 0.33
53 2 4.608e+01 -6.186e-01 -7.402e-01 0.34 0.34 0.32
54 3 4.766e+01 1.037e+00 -7.119e-01 0.34 0.33 0.32
55 1 4.782e+01 -6.482e-01 1.040e+00 0.35 0.34 0.32
56 2 4.617e+01 1.133e+00 1.087e+00 0.34 0.34 0.32
57 1 4.946e+01 -6.105e-01 -7.176e-01 0.34 0.33 0.33
58 2 5.142e+01 1.329e+00 -7.590e-01 0.34 0.33 0.33
59 1 5.149e+01 -4.945e-01 1.072e+00 0.34 0.33 0.33
60 1 4.957e+01 1.183e+00 9.455e-01 0.34 0.33 0.33
61 2 5.320e+01 -4.745e-01 -8.893e-01 0.34 0.33 0.33
62 2 5.482e+01 1.001e+00 -7.392e-01 0.34 0.33 0.34
63 1 5.475e+01 -7.168e-01 8.619e-01 0.34 0.32 0.33
64 3 5.306e+01 1.275e+00 1.022e+00 0.34 0.33 0.34
65 1 5.676e+01 -5.568e-01 -9.176e-01 0.33 0.33 0.34
66 2 5.855e+01 1.269e+00 -6.120e-01 0.34 0.33 0.34
67 2 5.842e+01 -5.614e-01 1.218e+00 0.34 0.32 0.34
68 2 5.678e+01 1.330e+00 1.052e+00 0.33 0.33 0.34
69 1 6.045e+01 -5.470e-01 -9.128e-01 0.33 0.33 0.34
70 2 6.220e+01 1.047e+00 -9.098e-01 0.33 0.33 0.34
71 1 6.221e+01 -8.260e-01 7.659e-01 0.33 0.33 0.35
72 2 6.027e+01 9.804e-01 1.102e+00 0.33 0.32 0.34
73 1 6.436e+01 -6.279e-01 -5.484e-01 0.33 0.33 0.34
74 2 6.590e+01 1.256e+00 -6.690e-01 0.33 0.33 0.34
75 1 6.594e+01 -5.065e-01 1.178e+00 0.33 0.32 0.35
76 3 6.421e+01 1.242e+00 1.376e+00 0.33 0.32 0.34
77 3 6.748e+01 -4.704e-01 -7.276e-01 0.33 0.32 0.35
78 2 6.947e+01 1.052e+00 -1.071e+00 0.32 0.33 0.35
79 1 6.936e+01 -6.627e-01 8.928e-01 0.33 0.32 0.35
80 1 6.777e+01 1.271e+00 9.767e-01 0.33 0.33 0.34
81 1 7.120e+01 -6.058e-01 -8.790e-01 0.32 0.33 0.35
82 1 7.298e+01 1.065e+00 -6.075e-01 0.32 0.33 0.35
83 2 7.314e+01 -9.598e-01 1.008e+00 0.32 0.32 0.36
84 1 7.122e+01 1.001e+00 1.276e+00 0.32 0.33 0.34
85 1 7.479e+01 -8.709e-01 -7.768e-01 0.32 0.33 0.35
86 1 7.653e+01 1.211e+00 -8.383e-01 0.32 0.33 0.35
87 1 7.663e+01 -6.098e-01 1.140e+00 0.32 0.32 0.36
88 1 7.477e+01 1.090e+00 8.907e-01 0.32 0.33 0.35
89 1 7.836e+01 -6.955e-01 -7.420e-01 0.32 0.33 0.35
90 3 8.043e+01 1.196e+00 -7.141e-01 0.32 0.33 0.35
91 1 7.999e+01 -7.077e-01 1.121e+00 0.32 0.33 0.35
92 1 7.863e+01 1.045e+00 1.139e+00 0.32 0.33 0.35
93 2 8.172e+01 -8.920e-01 -6.209e-01 0.32 0.33 0.35
94 2 8.357e+01 8.212e-01 -7.284e-01 0.32 0.33 0.35
95 1 8.362e+01 -7.861e-01 1.113e+00 0.33 0.33 0.35
96 1 8.196e+01 1.117e+00 1.269e+00 0.32 0.33 0.35
97 1 8.536e+01 -6.811e-01 -8.915e-01 0.32 0.33 0.35
98 3 8.728e+01 1.103e+00 -7.812e-01 0.32 0.33 0.34
99 1 8.712e+01 -7.617e-01 8.285e-01 0.33 0.33 0.35
100 3 8.547e+01 1.167e+00 9.850e-01 0.32 0.33 0.35
101 2 8.902e+01 -8.158e-01 -8.930e-01 0.32 0.33 0.35
102 3 9.091e+01 1.152e+00 -8.254e-01 0.33 0.33 0.34
103 1 9.081e+01 -8.944e-01 9.597e-01 0.33 0.33 0.34
104 3 8.898e+01 8.665e-01 9.267e-01 0.33 0.33 0.34
105 3 9.252e+01 -8.297e-01 -7.789e-01 0.33 0.33 0.34
106 2 9.449e+01 8.256e-01 -6.832e-01 0.33 0.33 0.34
107 3 9.448e+01 -9.940e-01 7.979e-01 0.33 0.33 0.34
108 3 9.271e+01 8.321e-01 7.809e-01 0.33 0.33 0.34
109 3 9.626e+01 -8.982e-01 -8.375e-01 0.33 0.33 0.34
110 3 9.803e+01 1.157e+00 -7.033e-01 0.33 0.33 0.34
111 2 9.819e+01 -8.066e-01 1.077e+00 0.33 0.33 0.35
112 1 9.647e+01 9.372e-01 1.001e+00 0.33 0.33 0.34
113 1 1.000e+02 -7.123e-01 -4.054e-01 0.33 0.33 0.34
114 2 1.015e+02 1.112e+00 -6.514e-01 0.33 0.33 0.35
115 3 1.017e+02 -8.008e-01 1.125e+00 0.33 0.32 0.35
116 1 1.002e+02 8.643e-01 1.316e+00 0.33 0.33 0.35
117 1 1.034e+02 -5.199e-01 -4.998e-01 0.32 0.33 0.35
118 2 1.052e+02 1.323e+00 -5.114e-01 0.32 0.33 0.35
119 2 1.052e+02 -5.557e-01 1.076e+00 0.33 0.32 0.35
120 2 1.032e+02 1.323e+00 1.111e+00 0.33 0.32 0.35
121 3 1.072e+02 -5.774e-01 -6.854e-01 0.33 0.33 0.34
122 2 1.090e+02 1.266e+00 -3.924e-01 0.32 0.33 0.35
123 2 1.088e+02 -6.702e-01 1.179e+00 0.33 0.33 0.34
124 2 1.070e+02 1.225e+00 1.082e+00 0.33 0.32 0.35
125 2 1.104e+02 -9.072e-01 -6.723e-01 0.32 0.34 0.34
126 1 1.124e+02 8.250e-01 -5.537e-01 0.32 0.33 0.35
127 2 1.124e+02 -8.316e-01 1.154e+00 0.32 0.34 0.34
128 2 1.108e+02 1.150e+00 1.199e+00 0.32 0.33 0.34
129 3 1.143e+02 -8.492e-01 -7.948e-01 0.32 0.33 0.34
130 2 1.161e+02 9.303e-01 -6.082e-01 0.32 0.33 0.34
131 3 1.160e+02 -7.027e-01 1.056e+00 0.32 0.34 0.34
132 1 1.142e+02 1.174e+00 9.466e-01 0.32 0.34 0.35
133 1 1.178e+02 -7.005e-01 -5.814e-01 0.32 0.34 0.34
134 1 1.199e+02 1.008e+00 -7.834e-01 0.33 0.33 0.34
135 2 1.200e+02 -7.740e-01 1.034e+00 0.33 0.34 0.33
136 1 1.180e+02 1.067e+00 8.400e-01 0.32 0.34 0.34
137 1 1.214e+02 -6.205e-01 -9.274e-01 0.32 0.33 0.34
138 2 1.233e+02 1.188e+00 -7.374e-01 0.33 0.34 0.33
139 3 1.233e+02 -9.587e-01 1.201e+00 0.33 0.34 0.34
140 1 1.215e+02 1.114e+00 1.165e+00 0.33 0.33 0.34
141 1 1.249e+02 -9.357e-01 -6.591e-01 0.33 0.34 0.34
142 2 1.268e+02 9.448e-01 -8.519e-01 0.33 0.34 0.33
143 1 1.268e+02 -8.048e-01 9.617e-01 0.32 0.35 0.33
144 1 1.251e+02 1.001e+00 1.018e+00 0.33 0.34 0.33
145 1 1.287e+02 -9.635e-01 -8.079e-01 0.33 0.34 0.34
146 3 1.305e+02 1.218e+00 -7.862e-01 0.33 0.34 0.34
147 3 1.304e+02 -6.746e-01 1.151e+00 0.32 0.35 0.33
148 2 1.286e+02 1.097e+00 8.425e-01 0.33 0.34 0.33
149 3 1.322e+02 -8.666e-01 -7.147e-01 0.32 0.34 0.34
150 3 1.340e+02 1.114e+00 -5.412e-01 0.33 0.34 0.34
151 1 1.341e+02 -8.573e-01 1.029e+00 0.32 0.35 0.33
152 3 1.322e+02 1.058e+00 8.544e-01 0.32 0.34 0.34
153 1 -7.621e-01 2.789e+00 -5.249e-01 0.32 0.34 0.33
154 2 1.218e+00 4.709e+00 -8.109e-01 0.32 0.34 0.33
155 2 1.128e+00 2.956e+00 1.143e+00 0.32 0.35 0.33
156 2 -7.600e-01 4.606e+00 1.301e+00 0.33 0.34 0.33
157 1 2.864e+00 2.965e+00 -6.470e-01 0.33 0.34 0.33
158 3 4.485e+00 4.996e+00 -3.049e-01 0.32 0.34 0.33
159 3 4.625e+00 2.788e+00 1.187e+00 0.32 0.34 0.33
160 1 2.741e+00 4.805e+00 1.290e+00 0.32 0.34 0.33
161 2 6.437e+00 3.063e+00 -5.684e-01 0.32 0.34 0.34
162 3 8.205e+00 4.589e+00 -6.345e-01 0.32 0.33 0.34
163 3 8.351e+00 2.861e+00 1.193e+00 0.32 0.34 0.34
164 3 6.500e+00 4.816e+00 1.095e+00 0.32 0.33 0.34
165 1 9.879e+00 2.763e+00 -6.093e-01 0.32 0.34 0.34
166 2 1.171e+01 4.693e+00 -7.383e-01 0.32 0.33 0.35
167 2 1.197e+01 2.645e+00 1.094e+00 0.32 0.34 0.34
168 1 9.984e+00 4.359e+00 1.206e+00 0.32 0.34 0.35
169 2 1.368e+01 2.959e+00 -7.719e-01 0.32 0.33 0.34
170 2 1.541e+01 4.697e+00 -7.306e-01 0.32 0.33 0.34
171 3 1.543e+01 2.925e+00 1.239e+00 0.32 0.34 0.34
172 3 1.361e+01 4.496e+00 9.467e-01 0.32 0.34 0.34
173 3 1.715e+01 2.584e+00 -6.498e-01 0.33 0.33 0.34
174 3 1.895e+01 4.543e+00 -7.893e-01 0.33 0.33 0.34
175 2 1.911e+01 2.637e+00 1.157e+00 0.32 0.33 0.35
176 1 1.733e+01 4.689e+00 8.456e-01 0.33 0.33 0.34
177 1 2.077e+01 2.595e+00 -6.897e-01 0.32 0.34 0.34
178 2 2.267e+01 4.613e+00 -6.753e-01 0.32 0.33 0.34
179 1 2.268e+01 2.581e+00 9.756e-01 0.32 0.33 0.34
180 3 2.090e+01 4.206e+00 8.271e-01 0.33 0.33 0.34
181 1 2.445e+01 2.771e+00 -8.166e-01 0.32 0.34 0.34
182 3 2.630e+01 4.631e+00 -5.919e-01 0.32 0.34 0.34
183 1 2.621e+01 2.669e+00 1.112e+00 0.32 0.33 0.34
184 3 2.472e+01 4.519e+00 1.170e+00 0.33 0.33 0.34
185 3 2.802e+01 2.935e+00 -8.853e-01 0.33 0.33 0.34
186 1 2.972e+01 4.599e+00 -9.487e-01 0.33 0.33 0.34
187 3 2.969e+01 3.030e+00 1.173e+00 0.33 0.33 0.33
188 2 2.818e+01 4.776e+00 1.174e+00 0.32 0.34 0.34
189 2 3.161e+01 2.838e+00 -6.368e-01 0.33 0.33 0.33
190 1 3.341e+01 4.663e+00 -6.810e-01 0.34 0.33 0.33
191 1 3.344e+01 2.738e+00 1.213e+00 0.34 0.33 0.33
192 2 3.168e+01 4.444e+00 1.149e+00 0.34 0.33 0.33
193 2 3.517e+01 2.667e+00 -6.635e-01 0.34 0.33 0.33
194 1 3.701e+01 4.765e+00 -8.031e-01 0.34 0.33 0.33
195 3 3.692e+01 2.608e+00 1.113e+00 0.34 0.33 0.32
196 3 3.536e+01 4.669e+00 9.662e-01 0.34 0.34 0.33
197 2 3.864e+01 2.823e+00 -6.557e-01 0.34 0.34 0.32
198 1 4.071e+01 4.639e+00 -7.200e-01 0.34 0.34 0.32
199 3 4.056e+01 2.587e+00 1.136e+00 0.34 0.33 0.33
200 3 3.882e+01 4.379e+00 9.977e-01 0.34 0.33 0.33
201 2 4.230e+01 2.635e+00 -7.897e-01 0.35 0.33 0.32
202 3 4.408e+01 4.407e+00 -7.260e-01 0.34 0.33 0.32
203 2 4.428e+01 2.475e+00 8.862e-01 0.34 0.33 0.32
204 1 4.247e+01 4.721e+00 1.163e+00 0.34 0.33 0.33
205 3 4.586e+01 2.658e+00 -7.787e-01 0.34 0.33 0.32
206 1 4.777e+01 4.574e+00 -8.688e-01 0.34 0.33 0.33
207 1 4.790e+01 2.814e+00 8.392e-01 0.34 0.33 0.33
208 1 4.600e+01 4.674e+00 9.146e-01 0.34 0.33 0.33
209 3 4.961e+01 3.079e+00 -1.067e+00 0.34 0.33 0.33
210 1 5.138e+01 4.597e+00 -6.294e-01 0.34 0.33 0.34
211 2 5.149e+01 2.865e+00 9.449e-01 0.34 0.32 0.34
212 2 4.975e+01 4.729e+00 1.001e+00 0.34 0.33 0.33
213 2 5.323e+01 2.868e+00 -6.921e-01 0.34 0.33 0.33
214 1 5.471e+01 4.753e+00 -6.839e-01 0.33 0.33 0.33
215 2 5.499e+01 2.898e+00 1.049e+00 0.33 0.33 0.34
216 3 5.318e+01 4.763e+00 1.086e+00 0.34 0.33 0.33
217 1 5.668e+01 2.978e+00 -7.432e-01 0.33 0.33 0.34
218 1 5.864e+01 4.820e+00 -7.391e-01 0.32 0.33 0.34
219 1 5.848e+01 3.126e+00 1.009e+00 0.33 0.33 0.34
220 3 5.661e+01 4.864e+00 1.280e+00 0.33 0.33 0.34
221 3 6.043e+01 2.745e+00 -3.581e-01 0.33 0.33 0.34
222 1 6.219e+01 4.632e+00 -7.133e-01 0.33 0.33 0.34
223 2 6.246e+01 2.821e+00 8.536e-01 0.33 0.32 0.34
224 1 6.040e+01 4.910e+00 9.940e-01 0.33 0.33 0.34
225 3 6.431e+01 2.936e+00 -7.982e-01 0.33 0.32 0.34
226 1 6.603e+01 4.727e+00 -7.515e-01 0.33 0.33 0.34
227 3 6.602e+01 2.913e+00 1.066e+00 0.33 0.33 0.34
228 3 6.410e+01 4.777e+00 9.076e-01 0.33 0.33 0.34
229 2 6.783e+01 3.106e+00 -1.058e+00 0.33 0.33 0.34
230 2 6.939e+01 4.864e+00 -7.463e-01 0.33 0.33 0.34
231 2 6.953e+01 3.015e+00 7.726e-01 0.33 0.33 0.34
232 3 6.766e+01 4.385e+00 9.461e-01 0.33 0.33 0.34
233 1 7.134e+01 2.950e+00 -7.182e-01 0.33 0.33 0.34
234 1 7.300e+01 4.620e+00 -6.279e-01 0.33 0.33 0.34
235 1 7.311e+01 2.806e+00 1.092e+00 0.32 0.33 0.35
236 3 7.122e+01 4.716e+00 1.263e+00 0.33 0.34 0.34
237 3 7.479e+01 3.140e+00 -7.810e-01 0.32 0.33 0.35
238 3 7.654e+01 4.807e+00 -7.963e-01 0.33 0.33 0.34
239 1 7.650e+01 2.836e+00 1.109e+00 0.32 0.33 0.35
240 2 7.451e+01 4.694e+00 1.135e+00 0.33 0.33 0.34
241 1 7.840e+01 2.877e+00 -7.512e-01 0.32 0.33 0.35
242 2 8.010e+01 5.125e+00 -1.013e+00 0.33 0.33 0.34
243 1 8.016e+01 3.026e+00 9.430e-01 0.32 0.33 0.35
244 1 7.818e+01 4.715e+00 1.023e+00 0.33 0.33 0.35
245 2 8.194e+01 3.075e+00 -7.718e-01 0.32 0.33 0.35
246 2 8.373e+01 4.691e+00 -8.241e-01 0.32 0.33 0.35
247 2 8.369e+01 2.825e+00 1.059e+00 0.32 0.32 0.35
248 2 8.203e+01 4.639e+00 1.033e+00 0.33 0.33 0.35
249 2 8.521e+01 2.603e+00 -6.994e-01 0.32 0.33 0.35
250 1 8.727e+01 4.553e+00 -8.391e-01 0.32 0.34 0.34
251 1 8.758e+01 2.942e+00 1.067e+00 0.33 0.33 0.34
252 2 8.545e+01 4.616e+00 1.012e+00 0.33 0.33 0.34
253 3 8.920e+01 2.738e+00 -9.388e-01 0.32 0.33 0.34
254 3 9.093e+01 4.340e+00 -6.515e-01 0.33 0.33 0.34
255 2 9.086e+01 2.585e+00 1.152e+00 0.33 0.33 0.34
256 3 8.915e+01 4.631e+00 9.760e-01 0.33 0.34 0.34
257 3 9.278e+01 2.771e+00 -7.571e-01 0.33 0.33 0.34
258 2 9.464e+01 4.679e+00 -6.991e-01 0.34 0.32 0.34
259 2 9.448e+01 2.567e+00 9.644e-01 0.33 0.33 0.34
260 2 9.261e+01 4.517e+00 1.013e+00 0.33 0.32 0.34
261 3 9.611e+01 2.864e+00 -7.739e-01 0.34 0.33 0.34
262 3 9.810e+01 4.784e+00 -5.983e-01 0.34 0.32 0.34
263 3 9.808e+01 2.832e+00 1.284e+00 0.34 0.33 0.34
264 2 9.630e+01 4.576e+00 1.039e+00 0.34 0.32 0.34
265 1 9.969e+01 2.742e+00 -5.595e-01 0.33 0.33 0.35
266 2 1.015e+02 4.972e+00 -7.210e-01 0.33 0.32 0.35
267 3 1.012e+02 3.032e+00 1.130e+00 0.33 0.32 0.35
268 2 9.955e+01 4.705e+00 1.135e+00 0.34 0.32 0.34
269 3 1.034e+02 2.815e+00 -6.467e-01 0.32 0.32 0.35
270 3 1.055e+02 4.711e+00 -7.588e-01 0.32 0.32 0.35
271 1 1.051e+02 3.183e+00 1.245e+00 0.33 0.32 0.35
272 3 1.033e+02 4.512e+00 7.352e-01 0.33 0.32 0.35
273 1 1.070e+02 2.910e+00 -6.172e-01 0.33 0.33 0.35
274 3 1.088e+02 4.916e+00 -8.864e-01 0.33 0.33 0.34
275 2 1.089e+02 3.105e+00 1.253e+00 0.33 0.33 0.35
276 1 1.071e+02 4.745e+00 1.177e+00 0.33 0.32 0.35
277 1 1.107e+02 2.953e+00 -6.674e-01 0.32 0.33 0.35
278 3 1.125e+02 4.567e+00 -6.942e-01 0.32 0.33 0.35
279 3 1.125e+02 3.037e+00 1.139e+00 0.32 0.33 0.35
280 3 1.105e+02 4.590e+00 1.329e+00 0.33 0.32 0.35
281 3 1.143e+02 2.794e+00 -9.533e-01 0.32 0.33 0.35
283 1 1.161e+02 2.769e+00 9.591e-01 0.32 0.34 0.34
284 3 1.145e+02 4.431e+00 1.267e+00 0.32 0.33 0.35
285 1 1.179e+02 2.861e+00 -8.718e-01 0.32 0.33 0.34
286 1 1.198e+02 4.708e+00 -8.024e-01 0.33 0.33 0.34
287 1 1.198e+02 2.989e+00 9.232e-01 0.33 0.34 0.34
288 2 1.177e+02 4.733e+00 1.047e+00 0.32 0.33 0.34
289 1 1.216e+02 2.909e+00 -6.566e-01 0.33 0.34 0.34
290 1 1.233e+02 4.682e+00 -1.016e+00 0.33 0.34 0.33
291 3 1.234e+02 2.998e+00 1.191e+00 0.33 0.34 0.33
292 2 1.214e+02 4.748e+00 1.066e+00 0.34 0.33 0.33
293 3 1.250e+02 2.729e+00 -6.077e-01 0.33 0.34 0.33
294 2 1.269e+02 4.734e+00 -9.020e-01 0.34 0.33 0.33
295 3 1.269e+02 3.215e+00 1.026e+00 0.33 0.34 0.33
296 2 1.251e+02 4.684e+00 9.330e-01 0.33 0.33 0.33
297 1 1.286e+02 2.855e+00 -9.366e-01 0.33 0.34 0.33
298 1 1.303e+02 4.612e+00 -7.110e-01 0.34 0.33 0.33
299 1 1.303e+02 2.939e+00 8.592e-01 0.33 0.34 0.33
300 1 1.287e+02 4.783e+00 1.175e+00 0.34 0.33 0.33
301 3 1.324e+02 2.838e+00 -9.011e-01 0.33 0.33 0.34
302 1 1.341e+02 4.755e+00 -5.393e-01 0.33 0.34 0.33
303 1 1.341e+02 2.752e+00 1.048e+00 0.33 0.34 0.33
304 3 1.323e+02 4.500e+00 1.134e+00 0.34 0.33 0.33
305 3 -9.244e-01 6.447e+00 -6.663e-01 0.33 0.34 0.33
306 1 1.062e+00 8.087e+00 -4.825e-01 0.33 0.34 0.33
307 1 7.450e-01 6.340e+00 1.341e+00 0.33 0.34 0.33
308 2 -8.249e-01 8.173e+00 1.414e+00 0.33 0.34 0.33
309 2 2.782e+00 6.438e+00 -4.704e-01 0.32 0.34 0.34
310 3 4.522e+00 8.071e+00 -6.474e-01 0.33 0.34 0.34
311 2 4.904e+00 6.464e+00 1.318e+00 0.32 0.33 0.34
312 1 2.731e+00 8.184e+00 1.136e+00 0.33 0.34 0.33
313 2 6.344e+00 6.627e+00 -5.395e-01 0.32 0.33 0.34
314 1 8.184e+00 8.322e+00 -6.580e-01 0.32 0.33 0.35
315 2 8.181e+00 6.667e+00 1.098e+00 0.33 0.33 0.34
316 1 6.545e+00 8.407e+00 1.216e+00 0.33 0.33 0.34
317 2 1.000e+01 6.568e+00 -6.227e-01 0.32 0.33 0.34
318 1 1.172e+01 8.496e+00 -5.681e-01 0.33 0.33 0.34
319 2 1.184e+01 6.144e+00 1.345e+00 0.32 0.33 0.35
320 3 1.011e+01 8.015e+00 1.027e+00 0.32 0.33 0.35
321 3 1.373e+01 6.420e+00 -7.520e-01 0.32 0.34 0.34
322 3 1.555e+01 8.252e+00 -8.591e-01 0.33 0.33 0.34
323 3 1.548e+01 6.322e+00 8.944e-01 0.32 0.33 0.34
324 1 1.353e+01 7.945e+00 1.020e+00 0.33 0.33 0.34
325 3 1.723e+01 6.451e+00 -7.730e-01 0.33 0.33 0.34
326 3 1.912e+01 8.322e+00 -7.242e-01 0.33 0.33 0.33
327 3 1.902e+01 6.543e+00 1.157e+00 0.33 0.33 0.34
328 3 1.720e+01 8.494e+00 1.113e+00 0.33 0.33 0.34
329 2 2.068e+01 6.288e+00 -8.235e-01 0.33 0.33 0.34
330 2 2.257e+01 8.205e+00 -5.022e-01 0.33 0.33 0.34
331 1 2.281e+01 6.261e+00 1.153e+00 0.33 0.33 0.34
332 2 2.086e+01 7.888e+00 1.228e+00 0.33 0.33 0.34
333 3 2.445e+01 6.620e+00 -6.897e-01 0.32 0.33 0.35
334 2 2.602e+01 8.223e+00 -7.825e-01 0.33 0.33 0.35
335 2 2.632e+01 6.653e+00 1.136e+00 0.32 0.33 0.35
336 2 2.441e+01 8.276e+00 9.946e-01 0.32 0.33 0.35
337 3 2.810e+01 6.639e+00 -7.736e-01 0.33 0.33 0.34
338 3 2.980e+01 8.315e+00 -7.330e-01 0.33 0.33 0.34
339 3 2.982e+01 6.404e+00 1.094e+00 0.33 0.33 0.34
340 1 2.811e+01 8.308e+00 1.192e+00 0.32 0.33 0.35
341 1 3.168e+01 6.518e+00 -8.716e-01 0.33 0.33 0.34
342 3 3.354e+01 8.568e+00 -8.525e-01 0.33 0.33 0.34
343 3 3.322e+01 6.543e+00 1.242e+00 0.33 0.33 0.34
344 1 3.152e+01 8.307e+00 9.712e-01 0.33 0.33 0.34
345 3 3.506e+01 6.508e+00 -5.085e-01 0.34 0.33 0.33
346 1 3.694e+01 8.202e+00 -7.550e-01 0.33 0.34 0.33
347 3 3.725e+01 6.343e+00 1.394e+00 0.34 0.33 0.33
348 2 3.504e+01 8.211e+00 9.103e-01 0.34 0.33 0.33
349 3 3.889e+01 6.434e+00 -6.548e-01 0.34 0.34 0.33
350 3 4.067e+01 8.053e+00 -6.801e-01 0.34 0.34 0.33
351 1 4.028e+01 6.209e+00 1.247e+00 0.33 0.34 0.33
352 2 3.894e+01 8.325e+00 1.092e+00 0.34 0.34 0.33
353 2 4.223e+01 6.564e+00 -5.105e-01 0.34 0.33 0.33
354 3 4.404e+01 8.227e+00 -5.895e-01 0.34 0.33 0.32
355 2 4.428e+01 6.193e+00 9.748e-01 0.34 0.33 0.33
356 2 4.245e+01 8.110e+00 1.486e+00 0.34 0.34 0.32
357 2 4.592e+01 6.462e+00 -7.899e-01 0.34 0.34 0.32
358 2 4.776e+01 8.236e+00 -5.984e-01 0.34 0.33 0.33
359 2 4.804e+01 6.385e+00 9.686e-01 0.34 0.33 0.32
360 2 4.606e+01 8.111e+00 1.050e+00 0.34 0.33 0.33
361 1 4.965e+01 6.257e+00 -9.228e-01 0.34 0.33 0.33
362 1 5.132e+01 8.220e+00 -6.253e-01 0.33 0.34 0.33
363 2 5.152e+01 6.327e+00 1.182e+00 0.34 0.33 0.33
364 2 4.959e+01 8.255e+00 9.922e-01 0.34 0.33 0.33
365 2 5.321e+01 6.897e+00 -6.754e-01 0.33 0.34 0.33
366 3 5.498e+01 8.360e+00 -7.582e-01 0.33 0.34 0.33
367 1 5.494e+01 6.650e+00 1.069e+00 0.34 0.33 0.33
368 3 5.327e+01 8.444e+00 1.116e+00 0.34 0.34 0.33
369 2 5.666e+01 6.652e+00 -7.103e-01 0.33 0.34 0.33
370 1 5.886e+01 8.282e+00 -9.134e-01 0.32 0.34 0.34
371 1 5.852e+01 6.490e+00 9.756e-01 0.33 0.33 0.34
372 1 5.697e+01 8.421e+00 8.053e-01 0.33 0.33 0.33
373 3 6.037e+01 6.565e+00 -8.715e-01 0.33 0.33 0.34
374 3 6.230e+01 8.562e+00 -8.485e-01 0.33 0.34 0.34
375 3 6.228e+01 6.596e+00 7.357e-01 0.33 0.33 0.34
376 3 6.048e+01 8.255e+00 1.057e+00 0.33 0.33 0.34
377 3 6.410e+01 6.752e+00 -7.670e-01 0.33 0.34 0.33
378 1 6.583e+01 8.261e+00 -6.098e-01 0.33 0.34 0.33
379 1 6.611e+01 6.265e+00 1.019e+00 0.33 0.33 0.33
380 2 6.396e+01 8.081e+00 1.302e+00 0.33 0.34 0.33
381 2 6.767e+01 6.631e+00 -8.256e-01 0.34 0.33 0.33
382 3 6.968e+01 8.281e+00 -1.044e+00 0.33 0.33 0.34
383 3 6.929e+01 6.839e+00 6.660e-01 0.33 0.33 0.33
384 3 6.767e+01 8.506e+00 9.073e-01 0.33 0.34 0.33
385 2 7.143e+01 6.461e+00 -6.690e-01 0.33 0.33 0.34
386 2 7.283e+01 8.402e+00 -6.843e-01 0.33 0.33 0.34
387 3 7.290e+01 6.374e+00 1.105e+00 0.33 0.33 0.34
388 2 7.142e+01 8.364e+00 1.143e+00 0.33 0.33 0.34
389 2 7.472e+01 6.635e+00 -6.730e-01 0.33 0.33 0.34
390 2 7.659e+01 8.624e+00 -7.175e-01 0.33 0.33 0.34
391 1 7.658e+01 6.607e+00 9.106e-01 0.33 0.33 0.34
392 3 7.459e+01 7.993e+00 9.691e-01 0.33 0.33 0.34
393 1 7.839e+01 6.689e+00 -5.467e-01 0.33 0.33 0.34
394 1 8.039e+01 8.599e+00 -6.541e-01 0.33 0.33 0.34
395 2 8.074e+01 6.616e+00 8.752e-01 0.33 0.33 0.34
396 3 7.861e+01 8.243e+00 1.027e+00 0.34 0.33 0.34
397 3 8.213e+01 6.633e+00 -8.182e-01 0.33 0.33 0.34
398 3 8.366e+01 8.236e+00 -7.436e-01 0.33 0.33 0.34
399 3 8.379e+01 6.417e+00 9.443e-01 0.33 0.33 0.34
400 3 8.224e+01 8.414e+00 1.249e+00 0.33 0.33 0.34
401 3 8.532e+01 6.357e+00 -8.076e-01 0.33 0.33 0.34
402 3 8.732e+01 8.138e+00 -6.128e-01 0.33 0.33 0.34
403 1 8.734e+01 6.350e+00 1.029e+00 0.33 0.33 0.34
404 2 8.549e+01 8.328e+00 8.182e-01 0.33 0.33 0.34
405 1 8.915e+01 6.479e+00 -7.490e-01 0.33 0.34 0.34
406 1 9.084e+01 8.223e+00 -5.934e-01 0.33 0.33 0.34
407 3 9.101e+01 6.421e+00 1.178e+00 0.33 0.33 0.34
408 1 8.913e+01 8.418e+00 9.708e-01 0.34 0.33 0.34
409 2 9.281e+01 6.643e+00 -4.075e-01 0.33 0.33 0.34
410 3 9.440e+01 8.060e+00 -6.281e-01 0.33 0.32 0.34
411 1 9.449e+01 6.536e+00 1.259e+00 0.34 0.32 0.34
412 2 9.278e+01 8.479e+00 1.241e+00 0.34 0.32 0.34
413 2 9.615e+01 6.421e+00 -7.483e-01 0.34 0.32 0.34
414 3 9.797e+01 8.409e+00 -5.442e-01 0.34 0.32 0.34
415 2 9.786e+01 6.697e+00 8.219e-01 0.34 0.32 0.34
416 1 9.602e+01 8.312e+00 1.142e+00 0.34 0.32 0.34
417 3 9.984e+01 6.636e+00 -5.640e-01 0.33 0.32 0.34
418 2 1.018e+02 8.123e+00 -5.090e-01 0.34 0.32 0.35
419 2 1.014e+02 6.338e+00 1.353e+00 0.34 0.31 0.35
420 2 9.990e+01 8.460e+00 1.187e+00 0.34 0.31 0.34
421 3 1.033e+02 6.433e+00 -6.311e-01 0.33 0.32 0.35
422 1 1.052e+02 8.220e+00 -6.421e-01 0.34 0.32 0.35
423 2 1.053e+02 6.419e+00 9.317e-01 0.34 0.32 0.35
424 2 1.035e+02 8.062e+00 1.342e+00 0.33 0.32 0.34
425 3 1.072e+02 6.703e+00 -7.362e-01 0.33 0.32 0.35
426 2 1.089e+02 8.304e+00 -4.708e-01 0.33 0.32 0.35
427 3 1.088e+02 6.564e+00 1.129e+00 0.34 0.32 0.35
428 2 1.071e+02 8.364e+00 1.290e+00 0.34 0.32 0.35
429 3 1.108e+02 6.432e+00 -5.318e-01 0.33 0.32 0.35
430 3 1.125e+02 8.280e+00 -4.893e-01 0.33 0.33 0.35
431 1 1.127e+02 6.345e+00 1.065e+00 0.33 0.33 0.34
432 1 1.109e+02 8.321e+00 1.102e+00 0.33 0.32 0.34
433 3 1.143e+02 6.428e+00 -6.359e-01 0.32 0.33 0.34
434 2 1.160e+02 8.261e+00 -8.251e-01 0.33 0.32 0.35
435 3 1.161e+02 6.335e+00 1.192e+00 0.32 0.33 0.34
436 2 1.145e+02 8.392e+00 1.113e+00 0.33 0.32 0.35
437 3 1.178e+02 6.485e+00 -6.079e-01 0.33 0.33 0.34
438 3 1.197e+02 8.133e+00 -7.685e-01 0.33 0.33 0.33
439 1 1.196e+02 6.436e+00 9.852e-01 0.33 0.33 0.34
440 2 1.178e+02 8.219e+00 7.723e-01 0.33 0.33 0.34
441 1 1.216e+02 6.436e+00 -7.673e-01 0.33 0.33 0.33
442 1 1.232e+02 8.231e+00 -7.333e-01 0.33 0.33 0.33
443 3 1.233e+02 6.224e+00 9.818e-01 0.34 0.33 0.33
444 2 1.213e+02 8.207e+00 1.122e+00 0.33 0.33 0.33
445 1 1.249e+02 6.666e+00 -8.649e-01 0.34 0.33 0.33
447 2 1.269e+02 6.594e+00 7.694e-01 0.34 0.33 0.33
448 3 1.252e+02 8.276e+00 1.045e+00 0.34 0.33 0.33
449 3 1.288e+02 6.565e+00 -6.495e-01 0.34 0.33 0.33
450 3 1.306e+02 8.345e+00 -5.639e-01 0.34 0.33 0.33
451 2 1.305e+02 6.472e+00 1.299e+00 0.34 0.33 0.33
452 1 1.286e+02 8.264e+00 1.068e+00 0.34 0.33 0.33
453 2 1.321e+02 6.477e+00 -7.264e-01 0.34 0.33 0.33
454 2 1.342e+02 8.080e+00 -8.756e-01 0.34 0.34 0.32
455 3 1.343e+02 6.515e+00 1.212e+00 0.33 0.34 0.33
456 1 1.324e+02 8.493e+00 1.103e+00 0.33 0.34 0.33
457 3 -6.661e-01 1.002e+01 -5.779e-01 0.33 0.34 0.33
458 1 8.357e-01 1.200e+01 -7.671e-01 0.33 0.33 0.34
459 1 1.068e+00 1.044e+01 1.251e+00 0.33 0.34 0.33
460 1 -9.426e-01 1.191e+01 1.037e+00 0.33 0.33 0.34
461 3 2.799e+00 9.975e+00 -4.381e-01 0.33 0.34 0.33
462 1 4.870e+00 1.166e+01 -6.366e-01 0.32 0.34 0.34
463 1 4.691e+00 9.955e+00 1.031e+00 0.33 0.33 0.34
464 1 2.827e+00 1.196e+01 1.010e+00 0.33 0.33 0.34
465 2 6.461e+00 9.839e+00 -6.360e-01 0.32 0.33 0.34
466 1 8.301e+00 1.186e+01 -8.135e-01 0.32 0.33 0.34
467 2 8.531e+00 9.934e+00 1.095e+00 0.32 0.33 0.35
468 2 6.581e+00 1.168e+01 1.184e+00 0.32 0.33 0.34
469 1 1.003e+01 1.007e+01 -7.732e-01 0.33 0.33 0.34
470 1 1.180e+01 1.180e+01 -8.104e-01 0.33 0.34 0.33
471 3 1.201e+01 1.016e+01 1.147e+00 0.33 0.34 0.34
472 3 1.018e+01 1.202e+01 1.008e+00 0.33 0.33 0.34
473 3 1.362e+01 9.931e+00 -6.879e-01 0.33 0.34 0.33
474 1 1.548e+01 1.172e+01 -8.262e-01 0.33 0.33 0.33
475 1 1.540e+01 1.015e+01 9.464e-01 0.33 0.33 0.34
476 1 1.371e+01 1.184e+01 9.619e-01 0.33 0.34 0.33
477 2 1.738e+01 1.007e+01 -6.313e-01 0.33 0.33 0.33
478 1 1.931e+01 1.171e+01 -4.682e-01 0.33 0.33 0.34
479 1 1.924e+01 9.864e+00 1.321e+00 0.33 0.33 0.34
480 2 1.753e+01 1.159e+01 1.278e+00 0.33 0.33 0.34
481 3 2.093e+01 1.002e+01 -8.249e-01 0.33 0.33 0.34
482 2 2.253e+01 1.176e+01 -7.241e-01 0.32 0.33 0.34
483 1 2.256e+01 9.886e+00 1.034e+00 0.32 0.33 0.34
484 2 2.090e+01 1.174e+01 1.189e+00 0.32 0.33 0.34
485 2 2.416e+01 1.010e+01 -7.914e-01 0.32 0.33 0.34
486 3 2.598e+01 1.186e+01 -6.815e-01 0.33 0.33 0.34
487 3 2.637e+01 1.031e+01 8.322e-01 0.33 0.33 0.34
488 2 2.429e+01 1.188e+01 1.096e+00 0.32 0.33 0.35
489 2 2.805e+01 1.003e+01 -6.683e-01 0.33 0.33 0.34
490 1 2.971e+01 1.163e+01 -5.700e-01 0.33 0.33 0.34
491 1 2.980e+01 9.996e+00 1.219e+00 0.32 0.33 0.35
492 3 2.804e+01 1.207e+01 1.270e+00 0.33 0.33 0.34
493 1 3.177e+01 1.023e+01 -7.196e-01 0.33 0.33 0.34
494 3 3.319e+01 1.187e+01 -2.328e-01 0.33 0.33 0.34
495 3 3.343e+01 9.731e+00 1.253e+00 0.34 0.33 0.33
496 3 3.142e+01 1.188e+01 1.244e+00 0.33 0.33 0.34
497 1 3.511e+01 1.033e+01 -5.289e-01 0.34 0.33 0.33
498 2 3.710e+01 1.180e+01 -5.068e-01 0.33 0.33 0.34
499 2 3.697e+01 9.975e+00 1.175e+00 0.33 0.34 0.33
500 3 3.505e+01 1.165e+01 1.345e+00 0.33 0.33 0.34
501 2 3.899e+01 9.877e+00 -7.171e-01 0.34 0.34 0.32
502 3 4.095e+01 1.177e+01 -6.292e-01 0.33 0.34 0.33
503 3 4.080e+01 9.823e+00 1.057e+00 0.34 0.34 0.32
504 3 3.884e+01 1.170e+01 9.971e-01 0.33 0.34 0.33
505 2 4.245e+01 9.854e+00 -5.153e-01 0.34 0.33 0.32
506 3 4.425e+01 1.186e+01 -6.397e-01 0.33 0.34 0.33
507 1 4.444e+01 9.883e+00 9.157e-01 0.34 0.33 0.33
508 2 4.258e+01 1.176e+01 1.016e+00 0.34 0.34 0.33
509 2 4.614e+01 9.901e+00 -8.253e-01 0.34 0.33 0.33
510 2 4.773e+01 1.180e+01 -8.802e-01 0.34 0.33 0.33
511 3 4.771e+01 9.999e+00 1.195e+00 0.34 0.33 0.33
512 3 4.587e+01 1.172e+01 1.284e+00 0.34 0.33 0.33
513 3 4.953e+01 1.019e+01 -7.278e-01 0.33 0.33 0.33
514 2 5.158e+01 1.169e+01 -7.138e-01 0.33 0.34 0.33
515 3 5.155e+01 1.015e+01 1.038e+00 0.33 0.33 0.33
516 1 4.973e+01 1.182e+01 9.688e-01 0.34 0.33 0.33
517 1 5.325e+01 9.877e+00 -7.535e-01 0.33 0.34 0.33
518 1 5.501e+01 1.182e+01 -8.182e-01 0.33 0.34 0.33
519 1 5.525e+01 1.007e+01 8.025e-01 0.33 0.34 0.33
520 2 5.326e+01 1.191e+01 9.494e-01 0.33 0.34 0.33
521 2 5.720e+01 1.013e+01 -9.375e-01 0.33 0.34 0.33
522 2 5.848e+01 1.184e+01 -1.015e+00 0.33 0.34 0.34
523 3 5.895e+01 1.008e+01 8.809e-01 0.33 0.33 0.34
524 3 5.683e+01 1.190e+01 8.312e-01 0.33 0.34 0.33
525 3 6.047e+01 1.024e+01 -7.108e-01 0.33 0.34 0.34
526 1 6.208e+01 1.219e+01 -6.606e-01 0.33 0.34 0.33
527 2 6.217e+01 1.037e+01 9.343e-01 0.33 0.33 0.34
528 3 6.038e+01 1.217e+01 9.861e-01 0.33 0.33 0.33
529 2 6.413e+01 9.852e+00 -6.563e-01 0.33 0.33 0.34
530 3 6.550e+01 1.179e+01 -6.701e-01 0.33 0.34 0.33
531 3 6.548e+01 1.014e+01 1.166e+00 0.33 0.34 0.33
532 1 6.389e+01 1.219e+01 1.043e+00 0.33 0.34 0.33
533 3 6.758e+01 1.016e+01 -7.934e-01 0.33 0.33 0.34
534 3 6.950e+01 1.178e+01 -9.725e-01 0.34 0.33 0.34
535 3 6.947e+01 1.002e+01 9.844e-01 0.33 0.33 0.34
536 3 6.781e+01 1.197e+01 6.755e-01 0.33 0.33 0.34
537 2 7.124e+01 9.945e+00 -6.673e-01 0.33 0.33 0.34
538 3 7.275e+01 1.198e+01 -6.800e-01 0.33 0.33 0.34
539 3 7.296e+01 9.934e+00 8.399e-01 0.33 0.34 0.33
540 2 7.127e+01 1.183e+01 9.430e-01 0.33 0.33 0.34
541 3 7.481e+01 1.020e+01 -6.676e-01 0.33 0.33 0.34
542 3 7.681e+01 1.205e+01 -1.023e+00 0.33 0.33 0.34
543 3 7.658e+01 1.035e+01 1.321e+00 0.33 0.33 0.34
544 3 7.498e+01 1.203e+01 1.065e+00 0.33 0.33 0.34
545 2 7.834e+01 1.036e+01 -6.631e-01 0.33 0.33 0.34
546 3 7.994e+01 1.208e+01 -6.385e-01 0.33 0.33 0.34
547 1 8.010e+01 1.017e+01 1.098e+00 0.33 0.33 0.34
548 2 7.829e+01 1.201e+01 1.152e+00 0.33 0.33 0.34
549 3 8.207e+01 1.016e+01 -6.105e-01 0.33 0.33 0.34
550 2 8.408e+01 1.195e+01 -5.184e-01 0.34 0.33 0.34
551 2 8.372e+01 1.001e+01 1.219e+00 0.33 0.33 0.34
552 1 8.198e+01 1.199e+01 8.661e-01 0.34 0.33 0.34
553 1 8.533e+01 1.008e+01 -8.511e-01 0.33 0.33 0.34
554 1 8.722e+01 1.202e+01 -6.985e-01 0.33 0.33 0.34
555 2 8.735e+01 1.026e+01 9.566e-01 0.33 0.33 0.34
556 2 8.585e+01 1.192e+01 1.085e+00 0.33 0.33 0.34
557 3 8.934e+01 1.008e+01 -9.951e-01 0.33 0.32 0.35
558 3 9.094e+01 1.188e+01 -5.973e-01 0.33 0.33 0.34
559 1 9.080e+01 1.021e+01 1.450e+00 0.34 0.32 0.34
560 3 8.901e+01 1.198e+01 1.171e+00 0.34 0.32 0.34
561 1 9.235e+01 9.977e+00 -6.286e-01 0.33 0.32 0.35
562 2 9.429e+01 1.182e+01 -7.423e-01 0.33 0.33 0.34
563 3 9.425e+01 1.018e+01 8.459e-01 0.33 0.32 0.34
564 2 9.259e+01 1.215e+01 1.089e+00 0.34 0.33 0.34
565 3 9.602e+01 1.031e+01 -5.806e-01 0.33 0.32 0.34
566 1 9.799e+01 1.206e+01 -8.509e-01 0.33 0.33 0.34
567 3 9.779e+01 1.017e+01 1.224e+00 0.34 0.32 0.34
568 2 9.606e+01 1.212e+01 8.807e-01 0.33 0.32 0.35
569 3 1.002e+02 9.898e+00 -6.828e-01 0.34 0.32 0.34
570 1 1.018e+02 1.184e+01 -7.771e-01 0.34 0.32 0.35
571 2 1.018e+02 9.832e+00 1.151e+00 0.34 0.32 0.34
572 1 9.994e+01 1.185e+01 9.134e-01 0.34 0.32 0.34
573 1 1.035e+02 9.933e+00 -8.198e-01 0.34 0.32 0.34
574 2 1.052e+02 1.199e+01 -6.785e-01 0.33 0.32 0.35
575 1 1.051e+02 1.001e+01 1.224e+00 0.34 0.32 0.34
576 1 1.035e+02 1.179e+01 1.145e+00 0.34 0.32 0.34
577 3 1.068e+02 9.791e+00 -6.300e-01 0.33 0.32 0.34
579 1 1.088e+02 1.000e+01 1.295e+00 0.33 0.32 0.35