ITEM: TIMESTEP
0
ITEM: NUMBER OF ATOMS
1000
ITEM: BOX BOUNDS xy xz yz pp pp pp
                     -7.17285867173345e-01 1.35237285867172e+02 0.00000000000000e+00
-7.17285867173345e-01	1.35237285867172e+02	0.00000000000000e+00
-7.17285867173345e-01	1.35237285867172e+02	0.00000000000000e+00
ITEM: ATOMS id type x y z p1 p2 p3
1 2 -4.097e-01 -2.783e-01 -2.441e-01 0.35 0.32 0.33
2 3 1.455e+00 1.412e+00 -4.016e-01 0.35 0.32 0.32
3 3 1.293e+00 -4.306e-01 1.331e+00 0.35 0.33 0.32
4 2 -2.290e-01 1.472e+00 1.406e+00 0.35 0.33 0.32
5 2 3.269e+00 -4.476e-01 -4.174e-01 0.35 0.32 0.32
6 1 5.036e+00 1.332e+00 -2.535e-01 0.36 0.32 0.33
7 2 5.135e+00 -4.966e-01 1.417e+00 0.36 0.32 0.32
8 1 3.159e+00 1.236e+00 1.432e+00 0.36 0.32 0.32
9 1 6.867e+00 -5.163e-01 -3.911e-01 0.35 0.32 0.33
10 2 8.648e+00 1.387e+00 -5.638e-01 0.34 0.32 0.33
11 1 8.741e+00 -3.571e-01 1.442e+00 0.35 0.32 0.33
12 3 6.715e+00 1.076e+00 1.443e+00 0.36 0.31 0.33
13 3 1.028e+01 -3.235e-01 -3.155e-01 0.35 0.31 0.34
14 2 1.206e+01 1.458e+00 -3.564e-01 0.35 0.31 0.34
15 3 1.192e+01 -1.709e-01 1.324e+00 0.36 0.31 0.33
16 1 1.012e+01 1.667e+00 1.453e+00 0.35 0.32 0.34
17 2 1.399e+01 -4.713e-01 -3.590e-01 0.35 0.31 0.34
18 1 1.569e+01 1.240e+00 -4.213e-01 0.35 0.31 0.34
19 1 1.560e+01 -2.702e-01 1.406e+00 0.35 0.31 0.33
20 2 1.379e+01 1.418e+00 1.525e+00 0.35 0.31 0.34
21 3 1.746e+01 -5.916e-01 -3.766e-01 0.35 0.31 0.34
22 3 1.924e+01 1.386e+00 -5.494e-01 0.35 0.31 0.34
23 2 1.927e+01 -3.355e-01 1.219e+00 0.35 0.31 0.34
24 1 1.740e+01 1.316e+00 1.399e+00 0.35 0.31 0.34
25 2 2.099e+01 -2.964e-01 -4.652e-01 0.35 0.31 0.34
26 3 2.284e+01 1.686e+00 -3.977e-01 0.35 0.31 0.34
27 3 2.286e+01 -2.738e-01 1.646e+00 0.35 0.31 0.34
28 3 2.127e+01 1.413e+00 1.313e+00 0.35 0.31 0.34
29 2 2.456e+01 -3.521e-01 -2.635e-01 0.35 0.31 0.34
30 1 2.628e+01 1.652e+00 -2.951e-01 0.35 0.31 0.34
31 2 2.645e+01 -3.433e-01 1.468e+00 0.34 0.32 0.34
32 2 2.461e+01 1.407e+00 1.446e+00 0.34 0.32 0.34
33 2 2.823e+01 -3.115e-01 -5.082e-01 0.35 0.31 0.34
34 1 2.994e+01 1.495e+00 -1.393e-01 0.34 0.32 0.34
35 1 2.990e+01 -2.204e-01 1.327e+00 0.34 0.32 0.34
36 3 2.815e+01 1.510e+00 1.359e+00 0.34 0.31 0.34
37 1 3.176e+01 -2.359e-01 -4.193e-01 0.34 0.33 0.33
38 1 3.369e+01 1.281e+00 -3.254e-01 0.34 0.33 0.34
39 2 3.366e+01 -3.298e-01 1.293e+00 0.34 0.33 0.34
40 1 3.177e+01 1.513e+00 1.420e+00 0.34 0.32 0.34
41 1 3.552e+01 -3.423e-01 -3.056e-01 0.34 0.33 0.33
42 1 3.729e+01 1.395e+00 -2.996e-01 0.34 0.33 0.33
43 2 3.715e+01 -2.312e-01 1.534e+00 0.34 0.33 0.33
44 2 3.538e+01 1.654e+00 1.381e+00 0.34 0.33 0.33
45 3 3.902e+01 -3.338e-01 -3.203e-01 0.34 0.34 0.33
46 3 4.064e+01 1.631e+00 -2.954e-01 0.33 0.34 0.33
47 2 4.084e+01 5.974e-02 1.630e+00 0.33 0.34 0.33
48 1 3.890e+01 1.563e+00 1.591e+00 0.34 0.34 0.33
49 1 4.252e+01 -1.931e-01 -2.777e-01 0.33 0.34 0.33
50 1 4.444e+01 1.485e+00 -3.096e-01 0.33 0.34 0.34
51 1 4.429e+01 -1.664e-01 1.393e+00 0.33 0.34 0.33
52 1 4.255e+01 1.660e+00 1.497e+00 0.33 0.34 0.33
53 3 4.596e+01 -3.462e-01 -5.874e-01 0.33 0.34 0.33
54 1 4.790e+01 1.315e+00 -1.724e-01 0.33 0.34 0.33
55 3 4.822e+01 -3.798e-01 1.328e+00 0.33 0.34 0.33
56 3 4.615e+01 1.460e+00 1.544e+00 0.33 0.34 0.34
57 2 4.992e+01 -2.613e-01 -2.220e-01 0.32 0.34 0.33
58 2 5.148e+01 1.535e+00 -2.490e-01 0.33 0.34 0.33
59 2 5.158e+01 -3.044e-01 1.450e+00 0.33 0.34 0.33
60 3 4.986e+01 1.502e+00 1.655e+00 0.33 0.34 0.33
61 1 5.328e+01 -4.804e-01 -3.593e-01 0.33 0.34 0.33
62 2 5.519e+01 1.375e+00 -3.330e-01 0.33 0.33 0.33
63 2 5.514e+01 -5.596e-01 1.428e+00 0.34 0.34 0.33
64 1 5.334e+01 1.484e+00 1.198e+00 0.33 0.34 0.33
65 3 5.711e+01 -3.575e-01 -5.346e-01 0.34 0.33 0.32
66 3 5.868e+01 1.414e+00 -3.312e-01 0.33 0.33 0.33
67 2 5.870e+01 -3.952e-01 1.363e+00 0.34 0.33 0.33
68 1 5.688e+01 1.410e+00 1.376e+00 0.34 0.33 0.33
69 1 6.042e+01 -3.963e-01 -5.902e-01 0.34 0.33 0.33
70 1 6.233e+01 1.477e+00 -4.259e-01 0.33 0.34 0.33
71 1 6.228e+01 -2.126e-01 1.475e+00 0.34 0.33 0.33
72 2 6.037e+01 1.530e+00 1.081e+00 0.34 0.33 0.33
73 3 6.402e+01 -3.234e-01 -5.607e-01 0.34 0.33 0.32
74 2 6.576e+01 1.395e+00 -2.785e-01 0.35 0.33 0.32
75 2 6.567e+01 -2.601e-01 1.395e+00 0.34 0.33 0.32
76 3 6.397e+01 1.559e+00 1.339e+00 0.34 0.33 0.32
77 3 6.753e+01 -3.454e-01 -3.407e-01 0.34 0.33 0.32
78 1 6.944e+01 1.458e+00 -4.978e-01 0.35 0.33 0.32
79 3 6.911e+01 -2.759e-01 1.296e+00 0.34 0.33 0.33
80 2 6.755e+01 1.631e+00 1.365e+00 0.35 0.33 0.32
81 1 7.114e+01 -2.597e-01 -3.953e-01 0.34 0.33 0.33
82 1 7.299e+01 1.590e+00 -2.689e-01 0.35 0.33 0.32
83 1 7.307e+01 -4.101e-01 1.318e+00 0.34 0.33 0.33
84 3 7.111e+01 1.494e+00 1.414e+00 0.35 0.33 0.32
85 2 7.480e+01 -2.810e-01 -2.317e-01 0.34 0.33 0.33
86 3 7.643e+01 1.433e+00 -2.877e-01 0.34 0.32 0.33
87 2 7.663e+01 -2.835e-01 1.439e+00 0.34 0.33 0.33
88 1 7.476e+01 1.348e+00 1.514e+00 0.34 0.33 0.33
89 3 7.825e+01 -2.284e-01 -2.047e-01 0.34 0.33 0.33
90 1 8.021e+01 1.438e+00 -3.493e-01 0.34 0.32 0.34
91 1 8.011e+01 -3.527e-01 1.578e+00 0.34 0.32 0.34
92 2 7.835e+01 1.534e+00 1.453e+00 0.34 0.33 0.33
93 1 8.194e+01 -2.372e-01 -3.846e-01 0.34 0.32 0.34
94 3 8.360e+01 1.444e+00 -7.057e-01 0.34 0.33 0.34
95 3 8.359e+01 -1.389e-01 1.504e+00 0.33 0.33 0.34
96 3 8.202e+01 1.454e+00 1.510e+00 0.34 0.32 0.34
97 3 8.544e+01 -3.884e-01 -2.571e-01 0.33 0.33 0.34
98 3 8.741e+01 1.457e+00 -2.992e-01 0.34 0.32 0.34
99 3 8.740e+01 -1.997e-01 1.473e+00 0.33 0.33 0.34
100 1 8.552e+01 1.519e+00 1.116e+00 0.33 0.33 0.34
101 2 8.912e+01 -2.817e-01 -3.072e-01 0.34 0.33 0.34
102 3 9.081e+01 1.243e+00 -3.219e-01 0.34 0.32 0.34
103 1 9.086e+01 -2.839e-01 1.471e+00 0.34 0.32 0.34
104 1 8.909e+01 1.673e+00 1.463e+00 0.34 0.32 0.34
105 2 9.261e+01 -4.143e-01 -1.845e-01 0.34 0.32 0.33
106 2 9.439e+01 1.245e+00 -3.291e-01 0.34 0.33 0.33
107 3 9.447e+01 -3.340e-01 1.381e+00 0.34 0.32 0.34
108 1 9.259e+01 1.506e+00 1.568e+00 0.34 0.32 0.33
109 3 9.632e+01 -3.810e-01 -5.189e-01 0.34 0.33 0.33
110 2 9.810e+01 1.360e+00 -3.231e-01 0.33 0.33 0.34
111 2 9.801e+01 -3.374e-01 1.490e+00 0.33 0.33 0.34
112 1 9.609e+01 1.498e+00 1.388e+00 0.34 0.33 0.34
113 1 9.986e+01 -4.911e-01 -3.276e-01 0.33 0.33 0.34
114 2 1.016e+02 1.594e+00 -3.443e-01 0.33 0.33 0.34
115 3 1.016e+02 -1.461e-01 1.495e+00 0.33 0.33 0.34
116 2 9.977e+01 1.414e+00 1.430e+00 0.33 0.33 0.34
117 2 1.033e+02 -1.239e-01 -3.236e-01 0.33 0.33 0.34
118 2 1.053e+02 1.427e+00 -1.296e-01 0.33 0.33 0.34
119 3 1.051e+02 -3.148e-01 1.253e+00 0.33 0.33 0.34
120 2 1.035e+02 1.399e+00 1.515e+00 0.33 0.33 0.34
121 3 1.068e+02 -3.218e-01 -3.201e-01 0.33 0.34 0.34
122 2 1.085e+02 1.513e+00 -3.861e-01 0.33 0.34 0.33
123 1 1.088e+02 -3.510e-01 1.319e+00 0.33 0.34 0.33
124 2 1.070e+02 1.344e+00 1.605e+00 0.33 0.33 0.33
125 3 1.105e+02 -3.067e-01 -2.223e-01 0.33 0.34 0.33
126 2 1.122e+02 1.329e+00 -4.239e-01 0.33 0.34 0.33
127 1 1.122e+02 -4.985e-01 1.393e+00 0.33 0.33 0.33
128 3 1.105e+02 1.418e+00 1.215e+00 0.33 0.33 0.34
129 2 1.140e+02 -4.612e-01 -1.516e-01 0.33 0.33 0.34
130 2 1.158e+02 1.331e+00 -2.804e-01 0.33 0.33 0.34
131 1 1.159e+02 -3.343e-01 1.451e+00 0.33 0.33 0.34
132 1 1.140e+02 1.391e+00 1.581e+00 0.33 0.33 0.34
133 3 1.179e+02 -3.924e-01 -3.006e-01 0.33 0.33 0.34
134 1 1.195e+02 1.324e+00 -2.440e-01 0.33 0.34 0.33
135 2 1.194e+02 -3.600e-01 1.712e+00 0.34 0.33 0.33
136 2 1.177e+02 1.353e+00 1.552e+00 0.33 0.34 0.33
137 2 1.213e+02 -3.738e-01 -2.246e-01 0.33 0.33 0.33
138 3 1.232e+02 1.274e+00 -1.707e-01 0.33 0.33 0.34
139 3 1.231e+02 -4.494e-01 1.534e+00 0.33 0.33 0.34
140 2 1.213e+02 1.393e+00 1.434e+00 0.34 0.33 0.33
141 1 1.249e+02 -4.762e-01 -3.949e-01 0.33 0.33 0.34
142 3 1.267e+02 1.487e+00 -2.884e-01 0.33 0.33 0.34
143 3 1.268e+02 -5.972e-01 1.516e+00 0.33 0.33 0.34
144 2 1.250e+02 1.256e+00 1.659e+00 0.33 0.33 0.34
145 1 1.285e+02 -3.708e-01 -3.161e-01 0.34 0.32 0.34
146 1 1.302e+02 1.470e+00 -3.838e-01 0.34 0.32 0.34
147 2 1.302e+02 -3.557e-01 1.414e+00 0.34 0.32 0.34
148 3 1.285e+02 1.492e+00 1.459e+00 0.34 0.33 0.34
149 2 1.321e+02 -4.048e-01 -2.604e-01 0.35 0.32 0.33
150 3 1.339e+02 1.549e+00 -4.217e-01 0.35 0.32 0.33
151 1 1.338e+02 -1.760e-01 1.384e+00 0.35 0.32 0.33
152 1 1.320e+02 1.537e+00 1.280e+00 0.35 0.33 0.33
153 2 -3.108e-01 3.164e+00 -2.681e-01 0.35 0.32 0.33
154 2 1.675e+00 4.974e+00 -4.714e-01 0.34 0.32 0.33
155 1 1.507e+00 3.172e+00 1.535e+00 0.35 0.32 0.33
156 2 -1.816e-01 4.983e+00 1.471e+00 0.34 0.32 0.33
157 1 3.230e+00 3.031e+00 -3.479e-01 0.35 0.32 0.33
158 3 5.049e+00 5.013e+00 -4.057e-01 0.35 0.32 0.33
159 3 4.881e+00 3.190e+00 1.609e+00 0.35 0.32 0.33
160 2 3.232e+00 5.038e+00 1.469e+00 0.35 0.32 0.33
161 1 6.703e+00 3.008e+00 -2.387e-01 0.35 0.32 0.34
162 3 8.567e+00 4.775e+00 -3.927e-01 0.34 0.32 0.34
163 1 8.372e+00 3.212e+00 1.444e+00 0.35 0.32 0.33
164 3 6.744e+00 5.119e+00 1.477e+00 0.35 0.31 0.33
165 2 1.046e+01 3.229e+00 -3.804e-01 0.34 0.32 0.34
166 2 1.228e+01 4.997e+00 -4.866e-01 0.35 0.31 0.34
167 2 1.231e+01 3.320e+00 1.319e+00 0.35 0.31 0.34
168 3 1.031e+01 4.743e+00 1.315e+00 0.35 0.32 0.34
169 1 1.406e+01 3.050e+00 -4.414e-01 0.35 0.31 0.34
170 3 1.592e+01 5.178e+00 -4.933e-01 0.35 0.31 0.34
171 1 1.576e+01 3.264e+00 1.196e+00 0.35 0.31 0.34
172 3 1.406e+01 4.911e+00 1.412e+00 0.35 0.31 0.34
173 3 1.742e+01 3.102e+00 -3.898e-01 0.35 0.31 0.34
174 3 1.935e+01 5.170e+00 -4.091e-01 0.35 0.31 0.34
175 3 1.921e+01 3.198e+00 1.427e+00 0.35 0.31 0.34
176 1 1.752e+01 4.832e+00 1.413e+00 0.35 0.31 0.34
177 2 2.069e+01 3.238e+00 -3.764e-01 0.35 0.31 0.34
178 3 2.266e+01 4.985e+00 -4.370e-01 0.34 0.32 0.34
179 1 2.301e+01 3.421e+00 1.473e+00 0.35 0.31 0.34
180 2 2.106e+01 5.029e+00 1.401e+00 0.35 0.32 0.34
181 3 2.471e+01 3.418e+00 -3.714e-01 0.35 0.31 0.34
182 3 2.649e+01 5.008e+00 -4.078e-01 0.34 0.31 0.34
183 1 2.642e+01 3.360e+00 1.483e+00 0.34 0.32 0.34
184 1 2.474e+01 4.996e+00 1.387e+00 0.34 0.32 0.34
185 3 2.819e+01 3.289e+00 -3.630e-01 0.34 0.32 0.34
186 1 3.007e+01 4.902e+00 -2.715e-01 0.34 0.32 0.35
187 3 2.995e+01 3.254e+00 1.616e+00 0.34 0.32 0.34
188 3 2.819e+01 5.156e+00 1.591e+00 0.34 0.32 0.34
189 3 3.185e+01 3.233e+00 -3.940e-01 0.34 0.32 0.34
190 3 3.352e+01 5.018e+00 -2.760e-01 0.34 0.32 0.34
191 3 3.353e+01 3.182e+00 1.595e+00 0.34 0.32 0.34
192 3 3.182e+01 4.945e+00 1.416e+00 0.34 0.32 0.34
193 2 3.520e+01 3.239e+00 -4.325e-01 0.34 0.33 0.33
194 3 3.710e+01 5.201e+00 -3.886e-01 0.34 0.33 0.33
195 1 3.713e+01 3.253e+00 1.448e+00 0.34 0.33 0.33
196 3 3.523e+01 4.885e+00 1.467e+00 0.34 0.33 0.34
197 1 3.888e+01 3.312e+00 -4.640e-01 0.33 0.33 0.34
198 2 4.061e+01 5.007e+00 -3.287e-01 0.33 0.33 0.34
199 3 4.067e+01 3.326e+00 1.317e+00 0.33 0.34 0.33
200 2 3.887e+01 4.992e+00 1.422e+00 0.33 0.33 0.34
201 1 4.239e+01 3.229e+00 -5.015e-01 0.33 0.34 0.34
202 2 4.423e+01 5.116e+00 -2.851e-01 0.32 0.33 0.35
203 1 4.427e+01 3.364e+00 1.308e+00 0.33 0.34 0.34
204 2 4.214e+01 5.071e+00 1.258e+00 0.33 0.33 0.34
205 3 4.611e+01 3.302e+00 -3.726e-01 0.33 0.34 0.34
206 2 4.792e+01 5.147e+00 -3.314e-01 0.32 0.34 0.34
207 3 4.803e+01 3.207e+00 1.495e+00 0.33 0.33 0.33
208 3 4.623e+01 5.030e+00 1.344e+00 0.32 0.34 0.34
209 3 4.962e+01 3.372e+00 -4.892e-01 0.33 0.34 0.34
210 3 5.154e+01 4.999e+00 -2.776e-01 0.33 0.34 0.34
211 3 5.145e+01 3.110e+00 1.514e+00 0.33 0.34 0.33
212 1 4.980e+01 5.139e+00 1.421e+00 0.32 0.34 0.34
213 1 5.323e+01 3.316e+00 -4.002e-01 0.33 0.33 0.34
214 2 5.510e+01 5.095e+00 -3.969e-01 0.33 0.34 0.33
215 1 5.519e+01 3.362e+00 1.350e+00 0.34 0.34 0.33
216 1 5.313e+01 4.968e+00 1.431e+00 0.33 0.33 0.34
217 1 5.695e+01 3.129e+00 -4.082e-01 0.33 0.33 0.34
218 2 5.858e+01 5.085e+00 -4.506e-01 0.33 0.34 0.33
219 3 5.859e+01 3.275e+00 1.468e+00 0.34 0.33 0.33
220 2 5.706e+01 5.026e+00 1.408e+00 0.33 0.34 0.33
221 3 6.040e+01 3.247e+00 -4.426e-01 0.33 0.33 0.33
222 3 6.216e+01 4.945e+00 -4.561e-01 0.34 0.33 0.33
223 2 6.224e+01 3.200e+00 1.345e+00 0.34 0.34 0.32
224 1 6.054e+01 4.975e+00 1.471e+00 0.34 0.34 0.33
225 2 6.399e+01 3.428e+00 -2.616e-01 0.34 0.33 0.32
226 1 6.593e+01 5.140e+00 -3.696e-01 0.35 0.34 0.32
227 3 6.581e+01 3.348e+00 1.422e+00 0.35 0.33 0.32
228 3 6.400e+01 5.241e+00 1.304e+00 0.34 0.34 0.32
229 1 6.753e+01 3.335e+00 -3.817e-01 0.35 0.33 0.32
230 3 6.955e+01 5.212e+00 -2.359e-01 0.35 0.33 0.32
231 2 6.929e+01 3.224e+00 1.367e+00 0.35 0.33 0.32
232 1 6.752e+01 4.879e+00 1.515e+00 0.35 0.33 0.32
233 1 7.115e+01 3.290e+00 -3.077e-01 0.35 0.33 0.32
234 3 7.300e+01 4.890e+00 -3.218e-01 0.36 0.32 0.33
235 2 7.294e+01 3.307e+00 1.365e+00 0.35 0.32 0.33
236 2 7.114e+01 4.954e+00 1.260e+00 0.35 0.32 0.33
237 3 7.494e+01 3.149e+00 -3.939e-01 0.35 0.32 0.33
238 2 7.666e+01 4.986e+00 -3.260e-01 0.35 0.32 0.33
239 1 7.664e+01 3.240e+00 1.390e+00 0.35 0.32 0.33
240 2 7.479e+01 4.850e+00 1.226e+00 0.35 0.32 0.33
241 2 7.839e+01 3.272e+00 -4.297e-01 0.35 0.32 0.33
242 3 8.013e+01 5.138e+00 -2.727e-01 0.35 0.32 0.34
243 3 8.008e+01 3.188e+00 1.435e+00 0.34 0.32 0.33
244 1 7.845e+01 4.995e+00 1.485e+00 0.35 0.32 0.33
245 1 8.186e+01 3.221e+00 -3.713e-01 0.34 0.33 0.33
246 2 8.374e+01 5.040e+00 -2.825e-01 0.34 0.33 0.34
247 3 8.374e+01 3.478e+00 1.381e+00 0.34 0.33 0.33
248 2 8.198e+01 5.102e+00 1.370e+00 0.34 0.32 0.33
249 1 8.562e+01 3.335e+00 -4.063e-01 0.33 0.33 0.34
250 3 8.726e+01 5.142e+00 -4.269e-01 0.34 0.32 0.34
251 3 8.734e+01 3.395e+00 1.273e+00 0.34 0.32 0.34
252 2 8.566e+01 5.059e+00 1.319e+00 0.34 0.32 0.34
253 3 8.925e+01 3.561e+00 -3.181e-01 0.34 0.32 0.34
254 3 9.108e+01 5.198e+00 -5.101e-01 0.34 0.32 0.34
255 3 9.103e+01 3.268e+00 1.421e+00 0.35 0.32 0.34
256 2 8.922e+01 5.013e+00 1.327e+00 0.34 0.32 0.34
257 1 9.271e+01 3.132e+00 -4.319e-01 0.34 0.33 0.34
258 1 9.446e+01 4.912e+00 -2.877e-01 0.34 0.32 0.34
259 1 9.433e+01 3.156e+00 1.478e+00 0.34 0.32 0.33
260 2 9.275e+01 4.795e+00 1.407e+00 0.34 0.32 0.34
261 1 9.605e+01 3.032e+00 -4.145e-01 0.33 0.33 0.34
262 2 9.813e+01 5.038e+00 -1.714e-01 0.34 0.33 0.33
263 2 9.791e+01 3.061e+00 1.456e+00 0.33 0.33 0.34
264 2 9.641e+01 5.104e+00 1.389e+00 0.34 0.32 0.34
265 1 9.978e+01 3.265e+00 -3.127e-01 0.33 0.33 0.34
266 3 1.015e+02 4.977e+00 -2.570e-01 0.34 0.33 0.34
267 2 1.016e+02 3.245e+00 1.602e+00 0.33 0.33 0.34
268 3 9.969e+01 4.971e+00 1.496e+00 0.34 0.32 0.34
269 1 1.033e+02 3.392e+00 -3.932e-01 0.34 0.33 0.33
270 2 1.050e+02 5.156e+00 -2.910e-01 0.34 0.33 0.33
271 2 1.051e+02 3.396e+00 1.367e+00 0.33 0.33 0.34
272 2 1.033e+02 5.123e+00 1.526e+00 0.33 0.33 0.34
273 3 1.069e+02 3.071e+00 -2.700e-01 0.33 0.33 0.34
274 3 1.086e+02 4.936e+00 -2.812e-01 0.33 0.34 0.33
275 3 1.088e+02 3.221e+00 1.343e+00 0.33 0.33 0.33
276 2 1.069e+02 5.010e+00 1.469e+00 0.34 0.33 0.33
277 3 1.105e+02 3.279e+00 -5.003e-01 0.33 0.34 0.33
278 2 1.122e+02 4.851e+00 -4.834e-01 0.34 0.33 0.33
279 2 1.122e+02 3.272e+00 1.286e+00 0.33 0.33 0.34
280 1 1.105e+02 5.004e+00 1.413e+00 0.34 0.33 0.33
281 1 1.140e+02 3.062e+00 -4.229e-01 0.33 0.33 0.34
282 2 1.158e+02 4.650e+00 -2.488e-01 0.34 0.33 0.33
283 1 1.159e+02 3.070e+00 1.602e+00 0.34 0.33 0.33
284 3 1.140e+02 5.027e+00 1.501e+00 0.34 0.33 0.33
285 2 1.177e+02 3.042e+00 -1.860e-01 0.34 0.34 0.33
286 2 1.195e+02 4.991e+00 -2.252e-01 0.34 0.33 0.33
287 2 1.195e+02 3.171e+00 1.491e+00 0.34 0.33 0.32
288 2 1.175e+02 4.838e+00 1.585e+00 0.34 0.33 0.33
289 2 1.213e+02 3.117e+00 -4.014e-01 0.34 0.33 0.33
290 3 1.230e+02 4.954e+00 -2.807e-01 0.34 0.33 0.33
291 2 1.231e+02 3.292e+00 1.642e+00 0.34 0.33 0.33
292 1 1.212e+02 5.045e+00 1.598e+00 0.34 0.33 0.32
293 3 1.249e+02 2.939e+00 -1.121e-01 0.34 0.33 0.33
294 1 1.267e+02 4.909e+00 -3.239e-01 0.34 0.33 0.33
295 2 1.268e+02 3.255e+00 1.473e+00 0.34 0.33 0.33
296 1 1.250e+02 5.000e+00 1.394e+00 0.34 0.33 0.33
297 1 1.284e+02 3.163e+00 -2.726e-01 0.33 0.32 0.34
298 3 1.303e+02 4.899e+00 -2.907e-01 0.33 0.33 0.34
299 3 1.302e+02 3.345e+00 1.509e+00 0.34 0.32 0.34
300 2 1.286e+02 4.959e+00 1.416e+00 0.34 0.32 0.34
301 3 1.322e+02 3.371e+00 -2.976e-01 0.34 0.32 0.34
302 2 1.340e+02 5.171e+00 -1.796e-01 0.34 0.32 0.34
303 2 1.339e+02 3.167e+00 1.601e+00 0.35 0.32 0.33
304 1 1.322e+02 5.174e+00 1.466e+00 0.34 0.32 0.34
305 2 -2.258e-01 6.785e+00 -4.271e-01 0.34 0.32 0.34
306 3 1.343e+00 8.624e+00 -3.139e-01 0.34 0.32 0.34
307 3 1.384e+00 6.758e+00 1.469e+00 0.34 0.32 0.33
308 1 -2.370e-01 8.539e+00 1.367e+00 0.34 0.32 0.34
309 1 3.267e+00 6.887e+00 -4.358e-01 0.34 0.32 0.33
310 1 4.921e+00 8.631e+00 -3.972e-01 0.34 0.32 0.34
311 3 4.968e+00 6.732e+00 1.540e+00 0.35 0.31 0.34
312 3 3.137e+00 8.470e+00 1.371e+00 0.34 0.32 0.34
313 1 6.695e+00 6.761e+00 -6.682e-01 0.34 0.32 0.34
314 3 8.603e+00 8.507e+00 -1.558e-01 0.34 0.32 0.34
315 3 8.626e+00 6.609e+00 1.280e+00 0.35 0.32 0.34
316 1 6.787e+00 8.418e+00 1.373e+00 0.35 0.32 0.34
317 3 1.043e+01 6.583e+00 -4.307e-01 0.34 0.31 0.34
318 2 1.224e+01 8.581e+00 -3.059e-01 0.34 0.31 0.35
319 3 1.221e+01 6.666e+00 1.470e+00 0.35 0.31 0.34
320 3 1.050e+01 8.471e+00 1.448e+00 0.34 0.31 0.34
321 2 1.389e+01 6.658e+00 -4.134e-01 0.34 0.31 0.35
322 3 1.567e+01 8.569e+00 -2.901e-01 0.35 0.31 0.34
323 2 1.581e+01 6.755e+00 1.461e+00 0.35 0.31 0.34
324 2 1.398e+01 8.567e+00 1.440e+00 0.35 0.31 0.34
325 3 1.762e+01 6.875e+00 -4.084e-01 0.35 0.31 0.34
326 1 1.919e+01 8.557e+00 -4.425e-01 0.35 0.31 0.34
327 3 1.922e+01 6.624e+00 1.572e+00 0.35 0.31 0.34
328 1 1.753e+01 8.501e+00 1.576e+00 0.35 0.31 0.34
329 2 2.101e+01 6.826e+00 -3.875e-01 0.35 0.31 0.34
330 1 2.290e+01 8.745e+00 -3.248e-01 0.35 0.31 0.34
331 1 2.279e+01 6.860e+00 1.345e+00 0.35 0.32 0.34
332 3 2.107e+01 8.655e+00 1.558e+00 0.35 0.32 0.33
333 3 2.455e+01 6.804e+00 -3.508e-01 0.35 0.31 0.34
334 3 2.639e+01 8.702e+00 -2.627e-01 0.35 0.31 0.34
335 3 2.636e+01 6.882e+00 1.434e+00 0.34 0.32 0.34
336 2 2.461e+01 8.648e+00 1.373e+00 0.35 0.32 0.34
337 3 2.822e+01 6.803e+00 -2.497e-01 0.34 0.32 0.35
338 3 3.016e+01 8.662e+00 -4.014e-01 0.34 0.32 0.34
339 1 3.008e+01 6.844e+00 1.351e+00 0.34 0.32 0.34
340 2 2.835e+01 8.792e+00 1.433e+00 0.35 0.32 0.34
341 2 3.185e+01 6.810e+00 -2.593e-01 0.34 0.32 0.34
342 2 3.350e+01 8.613e+00 -1.649e-01 0.34 0.32 0.34
343 3 3.359e+01 6.861e+00 1.479e+00 0.34 0.32 0.34
344 3 3.167e+01 8.584e+00 1.443e+00 0.34 0.32 0.34
345 1 3.536e+01 6.757e+00 -3.936e-01 0.33 0.33 0.34
346 1 3.714e+01 8.698e+00 -5.027e-01 0.33 0.32 0.34
347 1 3.702e+01 6.762e+00 1.462e+00 0.33 0.33 0.34
348 3 3.553e+01 8.620e+00 1.254e+00 0.33 0.33 0.34
349 2 3.881e+01 6.741e+00 -3.215e-01 0.33 0.33 0.34
350 3 4.071e+01 8.627e+00 -3.661e-01 0.32 0.33 0.35
351 2 4.050e+01 6.876e+00 1.262e+00 0.33 0.33 0.34
352 3 3.892e+01 8.632e+00 1.163e+00 0.33 0.33 0.34
353 2 4.253e+01 6.817e+00 -3.722e-01 0.32 0.34 0.34
354 1 4.439e+01 8.623e+00 -3.049e-01 0.31 0.34 0.35
355 3 4.429e+01 6.837e+00 1.252e+00 0.32 0.34 0.35
356 1 4.247e+01 8.517e+00 1.421e+00 0.32 0.34 0.34
357 3 4.605e+01 6.589e+00 -4.378e-01 0.31 0.34 0.35
358 3 4.777e+01 8.476e+00 -4.313e-01 0.32 0.33 0.35
359 2 4.782e+01 6.790e+00 1.438e+00 0.32 0.33 0.35
360 1 4.617e+01 8.608e+00 1.513e+00 0.31 0.34 0.35
361 1 4.969e+01 6.812e+00 -4.050e-01 0.32 0.34 0.35
362 1 5.152e+01 8.604e+00 -3.044e-01 0.33 0.33 0.34
363 3 5.165e+01 6.734e+00 1.463e+00 0.33 0.34 0.34
364 1 4.969e+01 8.663e+00 1.374e+00 0.32 0.33 0.34
365 1 5.331e+01 6.821e+00 -2.801e-01 0.33 0.33 0.34
366 1 5.515e+01 8.593e+00 -3.908e-01 0.33 0.34 0.33
367 2 5.505e+01 6.833e+00 1.416e+00 0.33 0.34 0.33
368 2 5.318e+01 8.601e+00 1.462e+00 0.33 0.34 0.33
369 2 5.702e+01 6.921e+00 -3.901e-01 0.33 0.34 0.33
370 3 5.875e+01 8.627e+00 -5.469e-01 0.34 0.33 0.33
371 1 5.885e+01 6.841e+00 1.478e+00 0.34 0.34 0.33
372 3 5.673e+01 8.517e+00 1.341e+00 0.33 0.34 0.33
373 1 6.044e+01 6.753e+00 -4.411e-01 0.33 0.34 0.33
374 3 6.226e+01 8.527e+00 -5.437e-01 0.34 0.34 0.32
375 3 6.220e+01 6.912e+00 1.382e+00 0.34 0.34 0.32
376 2 6.057e+01 8.541e+00 1.289e+00 0.34 0.34 0.32
377 2 6.395e+01 6.816e+00 -4.577e-01 0.34 0.33 0.32
378 2 6.575e+01 8.725e+00 -3.897e-01 0.35 0.33 0.32
379 1 6.591e+01 6.926e+00 1.388e+00 0.35 0.33 0.32
380 1 6.406e+01 8.741e+00 1.391e+00 0.34 0.33 0.32
381 1 6.761e+01 6.869e+00 -2.824e-01 0.35 0.33 0.32
382 1 6.951e+01 8.564e+00 -2.200e-01 0.35 0.32 0.33
383 2 6.944e+01 6.707e+00 1.350e+00 0.35 0.32 0.32
384 1 6.755e+01 8.785e+00 1.462e+00 0.35 0.33 0.32
385 1 7.136e+01 7.031e+00 -3.869e-01 0.36 0.32 0.32
386 1 7.308e+01 8.647e+00 -3.599e-01 0.35 0.32 0.33
387 2 7.302e+01 6.749e+00 1.429e+00 0.35 0.32 0.33
388 1 7.125e+01 8.664e+00 1.514e+00 0.35 0.32 0.33
389 1 7.464e+01 6.839e+00 -3.530e-01 0.35 0.32 0.33
390 1 7.627e+01 8.535e+00 -3.473e-01 0.35 0.32 0.33
391 2 7.639e+01 6.667e+00 1.343e+00 0.35 0.32 0.33
392 2 7.478e+01 8.763e+00 1.753e+00 0.35 0.32 0.33
393 3 7.828e+01 6.838e+00 -3.098e-01 0.35 0.32 0.33
394 1 7.999e+01 8.604e+00 -3.780e-01 0.34 0.32 0.34
395 1 8.017e+01 6.844e+00 1.544e+00 0.34 0.32 0.33
396 1 7.818e+01 8.459e+00 1.457e+00 0.34 0.32 0.34
397 1 8.216e+01 6.825e+00 -2.977e-01 0.34 0.32 0.34
398 2 8.383e+01 8.569e+00 -2.542e-01 0.34 0.33 0.33
399 2 8.372e+01 6.816e+00 1.423e+00 0.34 0.33 0.33
400 2 8.186e+01 8.533e+00 1.563e+00 0.34 0.32 0.34
401 2 8.564e+01 6.839e+00 -3.618e-01 0.34 0.33 0.33
402 2 8.732e+01 8.762e+00 -3.623e-01 0.34 0.33 0.33
403 1 8.729e+01 6.944e+00 1.500e+00 0.35 0.32 0.33
404 2 8.549e+01 8.625e+00 1.500e+00 0.34 0.33 0.33
405 2 8.898e+01 6.828e+00 -4.206e-01 0.34 0.32 0.34
406 1 9.094e+01 8.530e+00 -3.986e-01 0.34 0.33 0.33
407 1 9.099e+01 6.818e+00 1.422e+00 0.34 0.32 0.34
408 3 8.923e+01 8.477e+00 1.502e+00 0.34 0.32 0.34
409 1 9.277e+01 6.912e+00 -4.058e-01 0.34 0.32 0.34
410 1 9.434e+01 8.595e+00 -4.356e-01 0.34 0.32 0.34
411 3 9.469e+01 6.723e+00 1.238e+00 0.34 0.32 0.34
412 2 9.275e+01 8.650e+00 1.385e+00 0.34 0.32 0.34
413 2 9.631e+01 6.894e+00 -5.319e-01 0.34 0.32 0.33
414 3 9.807e+01 8.539e+00 -3.667e-01 0.34 0.32 0.34
415 2 9.806e+01 6.932e+00 1.473e+00 0.34 0.32 0.34
416 2 9.632e+01 8.774e+00 1.364e+00 0.34 0.32 0.34
417 1 9.973e+01 6.716e+00 -2.129e-01 0.34 0.32 0.34
418 2 1.017e+02 8.586e+00 -3.131e-01 0.34 0.33 0.33
419 3 1.015e+02 6.642e+00 1.423e+00 0.34 0.32 0.34
420 2 9.998e+01 8.480e+00 1.373e+00 0.34 0.32 0.34
421 3 1.035e+02 6.794e+00 -3.034e-01 0.34 0.33 0.33
422 3 1.050e+02 8.544e+00 -2.795e-01 0.34 0.33 0.33
423 3 1.052e+02 6.772e+00 1.503e+00 0.34 0.33 0.34
424 1 1.034e+02 8.551e+00 1.544e+00 0.34 0.33 0.34
425 1 1.069e+02 6.780e+00 -2.111e-01 0.34 0.33 0.33
426 2 1.088e+02 8.500e+00 -4.073e-01 0.34 0.33 0.33
427 2 1.088e+02 6.822e+00 1.325e+00 0.34 0.33 0.33
428 2 1.068e+02 8.585e+00 1.303e+00 0.34 0.32 0.34
429 3 1.108e+02 6.979e+00 -2.248e-01 0.34 0.33 0.33
430 3 1.124e+02 8.615e+00 -4.223e-01 0.34 0.33 0.33
431 2 1.122e+02 6.857e+00 1.644e+00 0.34 0.33 0.33
432 3 1.105e+02 8.616e+00 1.509e+00 0.34 0.32 0.33
433 1 1.141e+02 6.864e+00 -2.139e-01 0.34 0.33 0.33
434 2 1.159e+02 8.592e+00 -3.601e-01 0.34 0.33 0.33
435 3 1.158e+02 6.810e+00 1.392e+00 0.34 0.33 0.33
436 1 1.140e+02 8.601e+00 1.502e+00 0.34 0.33 0.33
437 2 1.178e+02 6.589e+00 -1.431e-01 0.34 0.33 0.33
438 2 1.194e+02 8.643e+00 -4.181e-01 0.34 0.34 0.33
439 1 1.196e+02 6.783e+00 1.569e+00 0.34 0.34 0.32
440 1 1.177e+02 8.501e+00 1.460e+00 0.34 0.34 0.32
441 2 1.213e+02 6.750e+00 -3.521e-01 0.34 0.33 0.33
442 2 1.230e+02 8.528e+00 -3.485e-01 0.33 0.33 0.33
443 1 1.230e+02 6.681e+00 1.490e+00 0.34 0.33 0.33
444 2 1.214e+02 8.552e+00 1.584e+00 0.34 0.33 0.33
445 2 1.248e+02 6.848e+00 -3.921e-01 0.34 0.33 0.33
446 2 1.267e+02 8.427e+00 -2.780e-01 0.34 0.33 0.33
447 2 1.267e+02 6.527e+00 1.416e+00 0.34 0.33 0.33
448 3 1.250e+02 8.298e+00 1.379e+00 0.34 0.33 0.33
449 2 1.284e+02 6.672e+00 -3.145e-01 0.33 0.33 0.34
450 3 1.302e+02 8.641e+00 -4.559e-01 0.34 0.33 0.33
451 1 1.301e+02 6.931e+00 1.515e+00 0.33 0.33 0.34
452 2 1.284e+02 8.585e+00 1.587e+00 0.34 0.33 0.33
453 1 1.319e+02 7.045e+00 -2.278e-01 0.33 0.33 0.34
454 1 1.338e+02 8.613e+00 -2.420e-01 0.34 0.32 0.33
455 3 1.342e+02 6.629e+00 1.487e+00 0.34 0.32 0.34
456 3 1.319e+02 8.654e+00 1.827e+00 0.34 0.33 0.34
457 2 -4.718e-01 1.034e+01 -4.527e-01 0.34 0.32 0.34
458 1 1.398e+00 1.205e+01 -4.041e-01 0.34 0.32 0.34
459 1 1.330e+00 1.045e+01 1.460e+00 0.34 0.32 0.34
460 3 -3.849e-01 1.217e+01 1.315e+00 0.34 0.32 0.34
461 1 3.099e+00 1.029e+01 -3.367e-01 0.34 0.32 0.34
462 3 5.176e+00 1.202e+01 -4.026e-01 0.34 0.32 0.34
463 3 4.886e+00 1.025e+01 1.340e+00 0.34 0.32 0.34
464 3 3.324e+00 1.215e+01 1.365e+00 0.34 0.32 0.34
465 2 6.841e+00 1.035e+01 -2.734e-01 0.34 0.31 0.35
466 1 8.411e+00 1.209e+01 -5.315e-01 0.34 0.31 0.35
467 3 8.750e+00 1.037e+01 1.396e+00 0.34 0.32 0.34
468 1 6.802e+00 1.209e+01 1.400e+00 0.33 0.32 0.35
469 3 1.047e+01 1.033e+01 -3.718e-01 0.34 0.32 0.34
470 3 1.214e+01 1.204e+01 -2.101e-01 0.34 0.31 0.35
471 2 1.211e+01 1.029e+01 1.609e+00 0.34 0.31 0.34
472 1 1.046e+01 1.223e+01 1.400e+00 0.34 0.32 0.34
473 2 1.397e+01 1.040e+01 -2.966e-01 0.35 0.31 0.34
474 3 1.569e+01 1.213e+01 -3.201e-01 0.34 0.31 0.34
475 1 1.586e+01 1.029e+01 1.411e+00 0.34 0.31 0.34
476 2 1.376e+01 1.209e+01 1.514e+00 0.34 0.31 0.34
477 1 1.759e+01 1.035e+01 -4.168e-01 0.34 0.31 0.35
478 1 1.920e+01 1.207e+01 -3.245e-01 0.34 0.31 0.35
479 1 1.920e+01 1.026e+01 1.476e+00 0.35 0.31 0.34
480 1 1.744e+01 1.215e+01 1.534e+00 0.35 0.31 0.34
481 2 2.108e+01 1.007e+01 -4.236e-01 0.35 0.31 0.34
482 3 2.270e+01 1.203e+01 -4.250e-01 0.34 0.31 0.34
483 2 2.291e+01 1.039e+01 1.490e+00 0.34 0.32 0.34
484 1 2.104e+01 1.230e+01 1.409e+00 0.34 0.32 0.34
485 3 2.458e+01 1.051e+01 -3.587e-01 0.35 0.31 0.34
486 2 2.628e+01 1.225e+01 -2.672e-01 0.34 0.31 0.34
487 2 2.638e+01 1.036e+01 1.419e+00 0.34 0.32 0.34
488 3 2.451e+01 1.220e+01 1.484e+00 0.34 0.32 0.34
489 1 2.804e+01 1.046e+01 -2.871e-01 0.34 0.32 0.34
490 3 3.003e+01 1.224e+01 -1.761e-01 0.34 0.32 0.34
491 1 2.999e+01 1.044e+01 1.556e+00 0.34 0.32 0.34
492 1 2.827e+01 1.229e+01 1.484e+00 0.34 0.32 0.34
493 3 3.184e+01 1.038e+01 -4.012e-01 0.33 0.32 0.35
494 2 3.352e+01 1.207e+01 -3.171e-01 0.33 0.32 0.34
495 2 3.351e+01 1.040e+01 1.629e+00 0.33 0.32 0.35
496 2 3.190e+01 1.220e+01 1.669e+00 0.34 0.32 0.34
497 3 3.529e+01 1.052e+01 -3.916e-01 0.33 0.32 0.35
498 2 3.699e+01 1.220e+01 -4.320e-01 0.33 0.32 0.35
499 1 3.727e+01 1.041e+01 1.468e+00 0.33 0.32 0.35
500 1 3.546e+01 1.225e+01 1.427e+00 0.33 0.32 0.35
501 1 3.891e+01 1.045e+01 -3.435e-01 0.33 0.33 0.35
502 2 4.073e+01 1.215e+01 -3.911e-01 0.33 0.32 0.35
503 2 4.083e+01 1.034e+01 1.249e+00 0.32 0.33 0.34
504 1 3.885e+01 1.227e+01 1.405e+00 0.33 0.32 0.35
505 2 4.260e+01 1.050e+01 -3.686e-01 0.32 0.33 0.35
506 1 4.435e+01 1.217e+01 -4.542e-01 0.32 0.33 0.34
507 1 4.441e+01 1.043e+01 1.289e+00 0.32 0.34 0.35
508 3 4.247e+01 1.215e+01 1.457e+00 0.32 0.33 0.34
509 2 4.625e+01 1.042e+01 -2.646e-01 0.31 0.34 0.35
510 1 4.792e+01 1.236e+01 -2.618e-01 0.32 0.34 0.34
511 1 4.790e+01 1.053e+01 1.353e+00 0.32 0.34 0.34
512 1 4.610e+01 1.223e+01 1.325e+00 0.32 0.33 0.35
513 2 4.976e+01 1.057e+01 -5.012e-01 0.32 0.33 0.34
514 1 5.163e+01 1.224e+01 -3.052e-01 0.33 0.34 0.34
515 1 5.141e+01 1.048e+01 1.432e+00 0.33 0.34 0.33
516 3 4.981e+01 1.225e+01 1.351e+00 0.33 0.33 0.34
517 1 5.328e+01 1.025e+01 -2.519e-01 0.33 0.34 0.34
518 2 5.497e+01 1.202e+01 -3.167e-01 0.33 0.34 0.34
519 3 5.524e+01 1.045e+01 1.466e+00 0.33 0.34 0.33
520 2 5.340e+01 1.210e+01 1.548e+00 0.33 0.34 0.33
521 3 5.689e+01 1.032e+01 -5.151e-01 0.33 0.34 0.33
522 2 5.875e+01 1.205e+01 -3.835e-01 0.33 0.34 0.33
523 3 5.883e+01 1.023e+01 1.280e+00 0.33 0.34 0.33
524 1 5.701e+01 1.213e+01 1.303e+00 0.33 0.34 0.33
525 3 6.051e+01 1.034e+01 -4.112e-01 0.33 0.34 0.33
526 2 6.221e+01 1.236e+01 -3.690e-01 0.34 0.34 0.33
527 3 6.235e+01 1.032e+01 1.320e+00 0.34 0.34 0.33
528 3 6.054e+01 1.213e+01 1.339e+00 0.34 0.33 0.33
529 1 6.403e+01 1.054e+01 -4.596e-01 0.34 0.34 0.32
530 1 6.586e+01 1.206e+01 -4.106e-01 0.34 0.33 0.33
531 2 6.595e+01 1.055e+01 1.635e+00 0.34 0.33 0.33
532 1 6.407e+01 1.213e+01 1.298e+00 0.34 0.34 0.33
533 1 6.752e+01 1.051e+01 -3.516e-01 0.35 0.33 0.33
534 1 6.943e+01 1.209e+01 -3.488e-01 0.34 0.33 0.33
535 3 6.948e+01 1.048e+01 1.473e+00 0.34 0.33 0.33
536 3 6.761e+01 1.211e+01 1.384e+00 0.34 0.33 0.32
537 1 7.136e+01 1.040e+01 -2.508e-01 0.35 0.32 0.33
538 2 7.319e+01 1.210e+01 -3.204e-01 0.34 0.33 0.33
539 1 7.292e+01 1.029e+01 1.462e+00 0.34 0.32 0.33
540 3 7.136e+01 1.216e+01 1.426e+00 0.34 0.33 0.33
541 3 7.473e+01 1.035e+01 -2.993e-01 0.34 0.32 0.33
542 2 7.647e+01 1.215e+01 -4.004e-01 0.34 0.32 0.34
543 2 7.647e+01 1.021e+01 1.411e+00 0.35 0.32 0.33
544 2 7.466e+01 1.219e+01 1.488e+00 0.34 0.32 0.33
545 3 7.822e+01 1.014e+01 -4.471e-01 0.34 0.32 0.34
546 1 7.998e+01 1.205e+01 -4.507e-01 0.34 0.32 0.34
547 2 8.007e+01 1.028e+01 1.319e+00 0.34 0.32 0.34
548 1 7.836e+01 1.221e+01 1.311e+00 0.35 0.32 0.34
549 1 8.197e+01 1.052e+01 -4.031e-01 0.34 0.32 0.34
550 3 8.364e+01 1.210e+01 -3.024e-01 0.34 0.33 0.33
551 2 8.375e+01 1.051e+01 1.356e+00 0.34 0.33 0.33
552 2 8.190e+01 1.222e+01 1.500e+00 0.34 0.32 0.33
553 2 8.549e+01 1.037e+01 -3.491e-01 0.34 0.32 0.33
554 1 8.725e+01 1.195e+01 -5.101e-01 0.34 0.32 0.34
555 3 8.713e+01 1.021e+01 1.317e+00 0.35 0.33 0.33
556 3 8.536e+01 1.212e+01 1.344e+00 0.34 0.33 0.33
557 3 8.912e+01 1.026e+01 -4.101e-01 0.34 0.33 0.33
558 1 9.072e+01 1.221e+01 -3.388e-01 0.34 0.32 0.33
559 2 9.086e+01 1.029e+01 1.314e+00 0.34 0.33 0.34
560 1 8.886e+01 1.203e+01 1.296e+00 0.34 0.32 0.34
561 1 9.266e+01 1.041e+01 -5.361e-01 0.34 0.32 0.34
562 3 9.442e+01 1.226e+01 -4.994e-01 0.34 0.32 0.34
563 3 9.440e+01 1.055e+01 1.288e+00 0.34 0.32 0.34
564 3 9.244e+01 1.204e+01 1.519e+00 0.35 0.32 0.34
565 3 9.627e+01 1.024e+01 -4.632e-01 0.34 0.32 0.34
566 1 9.800e+01 1.217e+01 -4.683e-01 0.34 0.32 0.34
567 3 9.821e+01 1.036e+01 1.376e+00 0.34 0.32 0.34
568 3 9.629e+01 1.217e+01 1.322e+00 0.34 0.32 0.34
569 2 9.990e+01 1.042e+01 -2.543e-01 0.34 0.33 0.34
571 1 1.017e+02 1.046e+01 1.420e+00 0.33 0.33 0.34
573 3 1.033e+02 1.048e+01 -3.277e-01 0.33 0.33 0.34
575 1 1.052e+02 1.047e+01 1.463e+00 0.34 0.33 0.34
577 3 1.071e+02 1.043e+01 -3.826e-01 0.34 0.33 0.34
579 3 1.086e+02 1.028e+01 1.380e+00 0.34 0.32 0.34
581 1 1.104e+02 1.029e+01 -4.666e-01 0.34 0.33 0.33
583 3 1.122e+02 1.034e+01 1.516e+00 0.33 0.33 0.34