ITEM: TIMESTEP
0
ITEM: NUMBER OF ATOMS
1000
ITEM: BOX BOUNDS xy xz yz pp pp pp
                     -8.95644351890496e-01 1.35415644351889e+02 0.00000000000000e+00
-8.95644351890496e-01	1.35415644351889e+02	0.00000000000000e+00
-8.95644351890496e-01	1.35415644351889e+02	0.00000000000000e+00
ITEM: ATOMS id type x y z p1 p2 p3
1 2 -5.064e-01 -6.133e-01 -7.037e-01 0.32 0.35 0.33
2 3 1.185e+00 1.243e+00 -6.315e-01 0.32 0.35 0.33
3 2 1.229e+00 -6.576e-01 1.311e+00 0.32 0.35 0.33
4 3 -5.100e-01 1.253e+00 1.267e+00 0.32 0.35 0.33
5 3 3.097e+00 -4.109e-01 -4.266e-01 0.32 0.36 0.33
6 1 4.554e+00 1.411e+00 -5.009e-01 0.32 0.35 0.33
7 3 4.902e+00 -4.227e-01 1.310e+00 0.31 0.36 0.33
8 1 2.939e+00 1.434e+00 1.254e+00 0.32 0.35 0.33
9 2 6.612e+00 -5.673e-01 -4.930e-01 0.31 0.36 0.33
10 3 8.438e+00 1.230e+00 -6.551e-01 0.31 0.36 0.33
11 1 8.050e+00 -5.628e-01 1.343e+00 0.31 0.36 0.33
12 2 6.597e+00 1.192e+00 1.144e+00 0.31 0.36 0.33
13 1 1.020e+01 -3.809e-01 -5.792e-01 0.31 0.36 0.33
14 1 1.195e+01 1.416e+00 -5.827e-01 0.31 0.35 0.33
15 2 1.184e+01 -4.087e-01 1.266e+00 0.31 0.36 0.33
16 1 9.953e+00 1.155e+00 1.207e+00 0.31 0.36 0.33
17 3 1.377e+01 -3.046e-01 -7.816e-01 0.31 0.36 0.34
18 3 1.534e+01 1.450e+00 -6.914e-01 0.31 0.35 0.33
19 2 1.562e+01 -6.279e-01 9.434e-01 0.31 0.36 0.34
20 1 1.368e+01 1.024e+00 1.376e+00 0.31 0.36 0.33
21 3 1.759e+01 -2.643e-01 -4.927e-01 0.31 0.35 0.34
22 3 1.928e+01 1.418e+00 -4.903e-01 0.32 0.35 0.33
23 1 1.920e+01 -4.208e-01 1.431e+00 0.31 0.35 0.34
24 1 1.717e+01 1.295e+00 1.124e+00 0.31 0.35 0.33
25 3 2.096e+01 -4.345e-01 -4.614e-01 0.32 0.34 0.34
26 1 2.281e+01 1.430e+00 -3.543e-01 0.32 0.34 0.33
27 2 2.272e+01 -6.288e-01 1.433e+00 0.32 0.34 0.34
28 1 2.093e+01 1.278e+00 1.354e+00 0.32 0.35 0.33
29 1 2.442e+01 -3.450e-01 -3.029e-01 0.32 0.34 0.34
30 1 2.627e+01 1.393e+00 -5.092e-01 0.32 0.34 0.34
31 1 2.633e+01 -4.649e-01 1.410e+00 0.32 0.34 0.34
32 2 2.459e+01 1.325e+00 1.309e+00 0.33 0.34 0.34
33 1 2.820e+01 -3.792e-01 -4.117e-01 0.32 0.34 0.34
34 3 2.981e+01 1.328e+00 -5.828e-01 0.33 0.33 0.34
35 1 2.985e+01 -3.068e-01 1.385e+00 0.32 0.34 0.34
36 2 2.795e+01 1.474e+00 1.377e+00 0.33 0.34 0.34
37 2 3.179e+01 -5.991e-01 -4.810e-01 0.33 0.33 0.34
38 3 3.351e+01 1.386e+00 -7.092e-01 0.33 0.33 0.35
39 3 3.342e+01 -1.249e-01 1.212e+00 0.33 0.33 0.34
40 2 3.147e+01 1.444e+00 1.100e+00 0.32 0.33 0.34
41 1 3.528e+01 -5.116e-01 -5.743e-01 0.33 0.33 0.35
42 1 3.702e+01 1.275e+00 -5.822e-01 0.33 0.33 0.34
43 1 3.703e+01 -5.802e-01 1.358e+00 0.33 0.33 0.34
44 1 3.530e+01 1.202e+00 1.258e+00 0.33 0.33 0.34
45 3 3.881e+01 -5.355e-01 -5.461e-01 0.33 0.34 0.34
46 3 4.065e+01 1.339e+00 -4.167e-01 0.33 0.33 0.34
47 3 4.053e+01 -5.647e-01 1.267e+00 0.33 0.34 0.33
48 2 3.878e+01 1.059e+00 1.207e+00 0.33 0.33 0.34
49 3 4.280e+01 -6.844e-01 -5.993e-01 0.33 0.34 0.33
50 1 4.435e+01 1.302e+00 -4.424e-01 0.34 0.33 0.33
51 1 4.434e+01 -5.537e-01 1.230e+00 0.33 0.33 0.33
52 2 4.244e+01 1.196e+00 1.250e+00 0.34 0.33 0.33
53 2 4.611e+01 -4.561e-01 -5.259e-01 0.34 0.34 0.33
54 3 4.802e+01 1.347e+00 -4.952e-01 0.34 0.34 0.33
55 2 4.781e+01 -2.763e-01 1.247e+00 0.34 0.34 0.33
56 1 4.605e+01 1.301e+00 1.357e+00 0.33 0.34 0.33
57 1 4.973e+01 -5.283e-01 -3.936e-01 0.34 0.33 0.32
58 3 5.161e+01 1.148e+00 -5.916e-01 0.35 0.33 0.32
59 2 5.162e+01 -5.576e-01 1.240e+00 0.35 0.33 0.32
60 1 4.976e+01 1.429e+00 1.284e+00 0.34 0.33 0.33
61 3 5.335e+01 -5.188e-01 -4.015e-01 0.35 0.34 0.32
62 3 5.514e+01 1.314e+00 -3.277e-01 0.35 0.34 0.31
63 2 5.514e+01 -5.622e-01 1.289e+00 0.34 0.33 0.32
64 2 5.321e+01 1.262e+00 1.398e+00 0.35 0.33 0.32
65 2 5.691e+01 -4.126e-01 -4.622e-01 0.35 0.34 0.32
66 2 5.847e+01 1.562e+00 -6.006e-01 0.35 0.34 0.31
67 1 5.882e+01 -2.916e-01 1.380e+00 0.34 0.34 0.32
68 1 5.673e+01 1.307e+00 1.416e+00 0.34 0.34 0.32
69 3 6.028e+01 -4.480e-01 -4.589e-01 0.35 0.34 0.32
70 1 6.225e+01 1.273e+00 -5.136e-01 0.35 0.34 0.31
71 3 6.238e+01 -5.671e-01 9.949e-01 0.35 0.34 0.32
72 1 6.050e+01 1.340e+00 1.203e+00 0.35 0.33 0.32
73 3 6.420e+01 -4.774e-01 -5.928e-01 0.35 0.34 0.31
74 2 6.582e+01 1.318e+00 -5.606e-01 0.35 0.34 0.31
75 2 6.586e+01 -6.165e-01 1.050e+00 0.34 0.34 0.32
76 1 6.398e+01 1.383e+00 1.123e+00 0.35 0.34 0.31
77 2 6.741e+01 -5.073e-01 -5.736e-01 0.34 0.34 0.31
78 1 6.934e+01 1.572e+00 -6.649e-01 0.35 0.34 0.31
79 2 6.920e+01 -1.406e-01 9.766e-01 0.35 0.34 0.31
80 3 6.763e+01 1.364e+00 1.016e+00 0.35 0.34 0.31
81 3 7.089e+01 -5.344e-01 -4.803e-01 0.35 0.34 0.31
82 1 7.288e+01 1.168e+00 -4.641e-01 0.35 0.34 0.31
83 3 7.275e+01 -4.228e-01 1.283e+00 0.35 0.34 0.31
84 1 7.117e+01 1.429e+00 1.232e+00 0.35 0.34 0.31
85 1 7.468e+01 -5.268e-01 -3.320e-01 0.35 0.34 0.31
86 2 7.622e+01 1.171e+00 -5.948e-01 0.36 0.33 0.31
87 1 7.649e+01 -5.939e-01 1.211e+00 0.35 0.33 0.32
88 2 7.461e+01 1.508e+00 1.256e+00 0.35 0.33 0.31
89 1 7.838e+01 -5.228e-01 -4.730e-01 0.35 0.33 0.32
90 2 7.993e+01 1.174e+00 -5.748e-01 0.35 0.33 0.32
91 2 8.011e+01 -6.414e-01 1.288e+00 0.35 0.33 0.32
92 1 7.810e+01 1.238e+00 1.297e+00 0.36 0.33 0.32
93 2 8.190e+01 -5.209e-01 -5.582e-01 0.35 0.33 0.32
94 2 8.371e+01 1.135e+00 -5.552e-01 0.35 0.32 0.32
95 2 8.345e+01 -5.341e-01 1.096e+00 0.35 0.33 0.32
96 2 8.206e+01 1.115e+00 1.155e+00 0.35 0.33 0.32
97 3 8.552e+01 -4.133e-01 -6.551e-01 0.35 0.32 0.32
98 3 8.727e+01 1.335e+00 -5.104e-01 0.35 0.32 0.33
99 2 8.742e+01 -5.254e-01 1.123e+00 0.35 0.33 0.32
100 1 8.544e+01 1.124e+00 1.294e+00 0.36 0.32 0.32
101 3 8.908e+01 -4.852e-01 -5.854e-01 0.35 0.32 0.33
102 2 9.085e+01 1.376e+00 -4.374e-01 0.35 0.32 0.33
103 2 9.082e+01 -6.350e-01 1.143e+00 0.34 0.33 0.33
104 1 8.913e+01 1.259e+00 1.302e+00 0.35 0.32 0.33
105 1 9.256e+01 -5.681e-01 -5.965e-01 0.34 0.32 0.34
106 3 9.433e+01 1.054e+00 -5.108e-01 0.34 0.32 0.34
107 2 9.438e+01 -5.728e-01 1.190e+00 0.34 0.32 0.34
108 2 9.271e+01 1.136e+00 1.379e+00 0.34 0.32 0.34
109 2 9.625e+01 -5.815e-01 -4.290e-01 0.34 0.32 0.34
110 2 9.789e+01 1.083e+00 -5.925e-01 0.34 0.32 0.34
111 1 9.793e+01 -6.015e-01 1.263e+00 0.34 0.33 0.34
112 3 9.609e+01 1.177e+00 1.286e+00 0.34 0.33 0.33
113 2 9.975e+01 -5.516e-01 -5.011e-01 0.33 0.33 0.34
114 1 1.015e+02 1.120e+00 -3.747e-01 0.34 0.33 0.34
115 1 1.016e+02 -5.109e-01 1.379e+00 0.33 0.33 0.34
116 3 9.964e+01 1.079e+00 1.238e+00 0.33 0.33 0.34
117 2 1.034e+02 -4.474e-01 -4.404e-01 0.33 0.33 0.34
118 3 1.053e+02 1.379e+00 -4.903e-01 0.34 0.32 0.34
119 1 1.053e+02 -3.616e-01 1.388e+00 0.33 0.33 0.34
120 2 1.034e+02 1.411e+00 1.410e+00 0.34 0.32 0.34
121 2 1.072e+02 -5.288e-01 -5.757e-01 0.33 0.33 0.34
122 1 1.087e+02 1.356e+00 -5.360e-01 0.33 0.33 0.34
123 2 1.089e+02 -5.057e-01 1.177e+00 0.32 0.33 0.34
124 2 1.070e+02 1.296e+00 1.236e+00 0.33 0.32 0.34
125 2 1.107e+02 -4.660e-01 -5.750e-01 0.32 0.33 0.35
126 1 1.125e+02 1.513e+00 -6.058e-01 0.32 0.33 0.35
127 1 1.125e+02 -4.869e-01 1.344e+00 0.32 0.34 0.35
128 3 1.106e+02 1.241e+00 1.057e+00 0.32 0.33 0.35
129 1 1.141e+02 -5.483e-01 -6.952e-01 0.32 0.33 0.35
130 1 1.160e+02 1.333e+00 -6.285e-01 0.32 0.33 0.35
131 1 1.161e+02 -6.141e-01 1.215e+00 0.32 0.33 0.35
132 3 1.142e+02 1.173e+00 1.159e+00 0.32 0.33 0.35
133 2 1.178e+02 -4.026e-01 -5.504e-01 0.32 0.33 0.35
134 3 1.195e+02 1.337e+00 -7.167e-01 0.32 0.33 0.35
135 2 1.196e+02 -3.188e-01 1.186e+00 0.32 0.33 0.35
136 1 1.178e+02 1.242e+00 1.321e+00 0.32 0.33 0.35
137 2 1.214e+02 -5.036e-01 -5.095e-01 0.32 0.33 0.35
138 3 1.229e+02 1.084e+00 -5.536e-01 0.32 0.34 0.34
139 1 1.234e+02 -3.686e-01 1.442e+00 0.32 0.34 0.34
140 3 1.214e+02 1.157e+00 1.179e+00 0.32 0.34 0.34
141 1 1.249e+02 -5.947e-01 -4.476e-01 0.32 0.34 0.34
142 2 1.268e+02 1.378e+00 -5.655e-01 0.33 0.34 0.34
143 2 1.270e+02 -5.587e-01 1.156e+00 0.32 0.34 0.34
144 2 1.251e+02 1.535e+00 1.525e+00 0.33 0.34 0.34
145 3 1.286e+02 -4.470e-01 -3.664e-01 0.33 0.34 0.33
146 3 1.304e+02 1.393e+00 -4.139e-01 0.32 0.34 0.34
147 1 1.303e+02 -6.212e-01 1.261e+00 0.33 0.34 0.33
148 2 1.286e+02 1.219e+00 1.411e+00 0.33 0.34 0.33
149 2 1.322e+02 -4.669e-01 -3.953e-01 0.32 0.34 0.34
150 3 1.340e+02 1.343e+00 -5.057e-01 0.32 0.34 0.34
151 1 1.341e+02 -4.967e-01 1.256e+00 0.32 0.35 0.33
152 3 1.321e+02 9.442e-01 1.565e+00 0.32 0.34 0.33
153 2 -4.252e-01 3.050e+00 -4.159e-01 0.32 0.35 0.33
154 3 1.226e+00 4.812e+00 -5.474e-01 0.32 0.35 0.33
155 1 1.394e+00 3.102e+00 1.243e+00 0.32 0.35 0.33
156 3 -4.406e-01 4.671e+00 1.307e+00 0.32 0.35 0.33
157 1 2.959e+00 3.097e+00 -8.438e-01 0.32 0.35 0.33
158 1 4.926e+00 4.894e+00 -8.027e-01 0.31 0.35 0.33
159 1 4.674e+00 2.987e+00 1.481e+00 0.31 0.36 0.33
160 3 3.075e+00 4.963e+00 1.110e+00 0.32 0.35 0.33
161 1 6.502e+00 2.955e+00 -8.145e-01 0.31 0.36 0.33
163 1 8.321e+00 3.042e+00 1.094e+00 0.31 0.35 0.33
164 1 6.535e+00 4.598e+00 1.181e+00 0.32 0.35 0.33
165 2 1.008e+01 3.079e+00 -6.416e-01 0.32 0.35 0.33
166 2 1.154e+01 4.696e+00 -6.566e-01 0.32 0.35 0.33
167 1 1.187e+01 3.159e+00 1.227e+00 0.31 0.35 0.33
168 3 9.949e+00 4.888e+00 1.125e+00 0.32 0.35 0.33
169 1 1.372e+01 3.234e+00 -5.112e-01 0.32 0.36 0.33
170 1 1.554e+01 4.753e+00 -6.005e-01 0.32 0.35 0.33
171 2 1.563e+01 3.163e+00 1.316e+00 0.32 0.35 0.33
172 1 1.379e+01 4.828e+00 1.383e+00 0.32 0.35 0.33
173 2 1.740e+01 3.041e+00 -7.122e-01 0.32 0.35 0.33
174 1 1.916e+01 4.880e+00 -3.785e-01 0.33 0.34 0.32
175 1 1.911e+01 3.007e+00 1.437e+00 0.32 0.35 0.33
176 1 1.733e+01 4.788e+00 1.160e+00 0.33 0.35 0.32
177 1 2.087e+01 3.136e+00 -5.350e-01 0.33 0.34 0.33
178 2 2.275e+01 4.932e+00 -7.914e-01 0.33 0.34 0.33
179 3 2.281e+01 3.017e+00 1.289e+00 0.32 0.34 0.34
180 1 2.101e+01 4.740e+00 1.149e+00 0.33 0.34 0.33
181 1 2.445e+01 3.265e+00 -7.153e-01 0.32 0.34 0.34
182 3 2.640e+01 4.947e+00 -6.428e-01 0.33 0.33 0.34
183 3 2.619e+01 3.090e+00 1.179e+00 0.32 0.34 0.34
184 1 2.460e+01 4.875e+00 1.164e+00 0.32 0.34 0.34
185 2 2.807e+01 3.069e+00 -5.272e-01 0.33 0.33 0.34
186 2 2.985e+01 4.901e+00 -5.474e-01 0.33 0.33 0.34
187 1 2.984e+01 3.180e+00 1.246e+00 0.32 0.33 0.34
188 3 2.800e+01 4.976e+00 1.099e+00 0.33 0.34 0.34
189 3 3.173e+01 3.200e+00 -5.888e-01 0.33 0.33 0.34
190 1 3.350e+01 4.806e+00 -5.384e-01 0.33 0.32 0.35
191 3 3.351e+01 3.015e+00 1.164e+00 0.33 0.33 0.35
192 3 3.166e+01 4.760e+00 1.306e+00 0.33 0.33 0.34
193 2 3.530e+01 3.154e+00 -7.654e-01 0.34 0.32 0.34
194 2 3.728e+01 4.854e+00 -7.021e-01 0.34 0.32 0.34
195 3 3.701e+01 3.051e+00 1.121e+00 0.34 0.33 0.34
196 2 3.532e+01 4.786e+00 1.127e+00 0.33 0.32 0.34
197 3 3.879e+01 3.158e+00 -3.642e-01 0.34 0.32 0.34
198 2 4.075e+01 4.734e+00 -4.261e-01 0.34 0.32 0.34
199 2 4.066e+01 2.977e+00 1.209e+00 0.33 0.33 0.34
200 2 3.889e+01 4.889e+00 1.259e+00 0.34 0.32 0.34
201 2 4.241e+01 2.931e+00 -4.401e-01 0.34 0.33 0.33
202 1 4.433e+01 4.781e+00 -5.334e-01 0.34 0.33 0.33
203 1 4.431e+01 2.912e+00 1.362e+00 0.33 0.34 0.33
204 1 4.235e+01 4.553e+00 1.357e+00 0.33 0.33 0.34
205 1 4.619e+01 3.129e+00 -4.700e-01 0.34 0.34 0.33
206 1 4.790e+01 4.758e+00 -6.833e-01 0.34 0.33 0.33
207 1 4.786e+01 3.133e+00 1.333e+00 0.34 0.34 0.33
208 2 4.608e+01 4.753e+00 1.530e+00 0.34 0.34 0.33
209 3 4.975e+01 3.300e+00 -5.494e-01 0.34 0.33 0.33
210 2 5.159e+01 4.721e+00 -5.484e-01 0.35 0.32 0.33
211 2 5.138e+01 3.241e+00 1.326e+00 0.35 0.33 0.32
212 1 4.971e+01 4.984e+00 1.125e+00 0.34 0.33 0.33
213 1 5.320e+01 3.071e+00 -4.334e-01 0.35 0.33 0.32
214 1 5.488e+01 4.860e+00 -5.618e-01 0.35 0.33 0.31
215 2 5.485e+01 3.018e+00 1.336e+00 0.35 0.33 0.32
216 2 5.336e+01 4.824e+00 1.367e+00 0.35 0.33 0.32
217 2 5.677e+01 3.184e+00 -4.576e-02 0.35 0.34 0.31
218 3 5.871e+01 5.054e+00 -5.326e-01 0.35 0.34 0.31
219 2 5.862e+01 3.012e+00 1.381e+00 0.35 0.33 0.32
220 3 5.669e+01 4.894e+00 1.453e+00 0.35 0.34 0.31
221 1 6.036e+01 3.145e+00 -4.528e-01 0.35 0.34 0.31
222 3 6.237e+01 4.985e+00 -3.530e-01 0.35 0.34 0.31
223 2 6.233e+01 3.325e+00 1.102e+00 0.35 0.33 0.31
224 1 6.048e+01 5.026e+00 1.371e+00 0.35 0.34 0.31
225 2 6.398e+01 2.979e+00 -7.543e-01 0.35 0.34 0.31
226 1 6.572e+01 4.783e+00 -6.819e-01 0.35 0.34 0.31
227 1 6.580e+01 3.102e+00 1.174e+00 0.35 0.34 0.31
228 2 6.423e+01 4.946e+00 1.284e+00 0.35 0.34 0.31
229 1 6.743e+01 3.122e+00 -4.748e-01 0.35 0.34 0.31
230 3 6.931e+01 4.956e+00 -6.471e-01 0.35 0.34 0.31
231 2 6.925e+01 3.080e+00 1.363e+00 0.35 0.34 0.31
232 3 6.765e+01 4.826e+00 1.289e+00 0.35 0.34 0.31
233 3 7.122e+01 3.217e+00 -4.875e-01 0.35 0.34 0.31
234 2 7.258e+01 4.931e+00 -3.598e-01 0.35 0.34 0.32
235 3 7.295e+01 3.114e+00 1.443e+00 0.35 0.34 0.31
236 1 7.100e+01 4.849e+00 1.311e+00 0.35 0.34 0.31
237 2 7.452e+01 2.938e+00 -5.468e-01 0.36 0.33 0.31
238 2 7.639e+01 4.739e+00 -5.983e-01 0.35 0.33 0.32
239 2 7.634e+01 3.141e+00 1.174e+00 0.35 0.33 0.32
240 1 7.461e+01 4.902e+00 1.129e+00 0.35 0.33 0.32
241 3 7.805e+01 2.987e+00 -3.540e-01 0.36 0.33 0.31
242 3 8.014e+01 4.850e+00 -4.384e-01 0.35 0.32 0.32
243 1 8.023e+01 2.838e+00 1.105e+00 0.35 0.33 0.32
244 1 7.847e+01 4.684e+00 1.221e+00 0.36 0.33 0.31
245 2 8.208e+01 2.981e+00 -7.959e-01 0.35 0.33 0.33
246 1 8.384e+01 4.940e+00 -4.656e-01 0.35 0.33 0.32
247 1 8.379e+01 3.225e+00 1.261e+00 0.35 0.33 0.33
248 2 8.185e+01 4.646e+00 1.067e+00 0.35 0.33 0.33
249 2 8.547e+01 3.092e+00 -4.342e-01 0.35 0.33 0.33
250 1 8.735e+01 4.754e+00 -5.414e-01 0.35 0.32 0.33
251 1 8.740e+01 3.074e+00 1.284e+00 0.35 0.33 0.32
252 2 8.560e+01 4.743e+00 1.282e+00 0.35 0.33 0.32
253 2 8.905e+01 3.089e+00 -5.955e-01 0.35 0.32 0.33
254 1 9.073e+01 4.885e+00 -5.679e-01 0.35 0.32 0.33
255 3 9.085e+01 2.963e+00 1.300e+00 0.34 0.32 0.34
256 2 8.904e+01 4.768e+00 1.422e+00 0.34 0.33 0.33
257 3 9.258e+01 2.788e+00 -3.421e-01 0.35 0.32 0.33
258 1 9.432e+01 4.871e+00 -4.269e-01 0.35 0.33 0.33
259 2 9.422e+01 3.008e+00 1.165e+00 0.34 0.32 0.34
260 1 9.248e+01 5.009e+00 1.408e+00 0.34 0.32 0.33
261 1 9.602e+01 3.056e+00 -3.884e-01 0.34 0.32 0.34
262 1 9.797e+01 4.801e+00 -4.933e-01 0.34 0.32 0.34
263 2 9.778e+01 3.116e+00 1.121e+00 0.34 0.32 0.34
264 1 9.606e+01 4.750e+00 1.393e+00 0.34 0.32 0.34
265 1 9.973e+01 2.838e+00 -2.857e-01 0.34 0.32 0.34
266 1 1.015e+02 4.845e+00 -2.632e-01 0.34 0.32 0.34
267 3 1.018e+02 3.142e+00 1.401e+00 0.33 0.33 0.34
268 1 9.976e+01 4.581e+00 1.573e+00 0.34 0.32 0.34
269 2 1.033e+02 3.110e+00 -3.375e-01 0.34 0.32 0.34
270 3 1.052e+02 4.803e+00 -6.575e-01 0.34 0.32 0.34
271 3 1.052e+02 3.006e+00 1.131e+00 0.34 0.32 0.34
272 3 1.035e+02 4.891e+00 1.466e+00 0.33 0.32 0.34
273 1 1.071e+02 3.113e+00 -6.852e-01 0.34 0.32 0.34
274 1 1.090e+02 4.735e+00 -5.111e-01 0.34 0.32 0.34
275 1 1.088e+02 3.074e+00 1.249e+00 0.33 0.33 0.34
276 1 1.070e+02 4.783e+00 1.351e+00 0.34 0.32 0.34
277 2 1.109e+02 3.080e+00 -6.706e-01 0.33 0.33 0.35
278 2 1.125e+02 4.782e+00 -4.967e-01 0.33 0.33 0.35
279 2 1.127e+02 2.978e+00 1.386e+00 0.32 0.33 0.35
280 1 1.106e+02 4.763e+00 1.237e+00 0.33 0.33 0.34
281 1 1.143e+02 3.050e+00 -5.445e-01 0.32 0.33 0.35
282 3 1.161e+02 4.680e+00 -4.832e-01 0.33 0.33 0.35
283 2 1.159e+02 3.136e+00 1.475e+00 0.32 0.33 0.35
284 3 1.143e+02 4.916e+00 1.305e+00 0.32 0.32 0.35
285 1 1.177e+02 2.958e+00 -5.981e-01 0.32 0.32 0.35
286 1 1.197e+02 4.722e+00 -5.997e-01 0.32 0.33 0.35
287 3 1.196e+02 3.213e+00 1.077e+00 0.33 0.33 0.34
288 3 1.179e+02 4.870e+00 1.278e+00 0.32 0.32 0.35
289 2 1.215e+02 3.033e+00 -3.716e-01 0.32 0.33 0.34
290 3 1.234e+02 4.723e+00 -1.505e-01 0.32 0.34 0.34
291 3 1.230e+02 2.946e+00 1.511e+00 0.33 0.34 0.33
292 3 1.215e+02 4.808e+00 1.237e+00 0.32 0.33 0.34
293 3 1.249e+02 2.822e+00 -5.618e-01 0.33 0.34 0.33
294 2 1.265e+02 4.651e+00 -1.412e-01 0.32 0.34 0.34
295 3 1.270e+02 2.858e+00 1.573e+00 0.33 0.34 0.33
296 3 1.250e+02 4.838e+00 1.543e+00 0.33 0.34 0.34
297 1 1.286e+02 3.125e+00 -3.361e-01 0.32 0.34 0.33
298 2 1.304e+02 4.921e+00 -6.884e-01 0.33 0.34 0.34
299 3 1.304e+02 3.242e+00 1.428e+00 0.32 0.34 0.34
300 2 1.286e+02 4.787e+00 1.455e+00 0.33 0.34 0.34
301 3 1.319e+02 3.133e+00 -5.041e-01 0.32 0.34 0.34
302 2 1.338e+02 4.756e+00 -4.838e-01 0.32 0.34 0.34
303 1 1.338e+02 3.027e+00 1.138e+00 0.32 0.35 0.33
304 3 1.321e+02 5.044e+00 1.352e+00 0.32 0.34 0.33
305 3 -4.710e-01 6.625e+00 -2.679e-01 0.32 0.35 0.33
306 2 1.202e+00 8.470e+00 -6.999e-01 0.32 0.35 0.33
307 2 1.461e+00 6.740e+00 9.948e-01 0.32 0.35 0.33
308 3 -5.142e-01 8.299e+00 1.448e+00 0.32 0.35 0.33
309 1 3.204e+00 6.574e+00 -7.348e-01 0.32 0.35 0.33
310 1 5.083e+00 8.314e+00 -5.587e-01 0.32 0.36 0.32
311 3 4.900e+00 6.464e+00 9.958e-01 0.32 0.36 0.32
312 2 3.310e+00 8.265e+00 1.104e+00 0.32 0.35 0.33
313 3 6.821e+00 6.452e+00 -7.187e-01 0.32 0.36 0.32
314 2 8.434e+00 8.397e+00 -8.665e-01 0.33 0.35 0.32
315 3 8.447e+00 6.601e+00 9.627e-01 0.32 0.35 0.32
316 3 6.690e+00 8.392e+00 1.012e+00 0.32 0.36 0.32
317 2 1.006e+01 6.782e+00 -7.803e-01 0.33 0.35 0.32
318 1 1.193e+01 8.232e+00 -5.559e-01 0.32 0.35 0.32
319 3 1.186e+01 6.475e+00 9.994e-01 0.32 0.35 0.33
320 2 1.026e+01 8.276e+00 1.145e+00 0.33 0.35 0.32
321 2 1.382e+01 6.671e+00 -7.470e-01 0.33 0.35 0.32
322 3 1.551e+01 8.449e+00 -8.077e-01 0.33 0.35 0.32
323 1 1.566e+01 6.602e+00 1.211e+00 0.33 0.35 0.32
324 2 1.390e+01 8.413e+00 1.139e+00 0.33 0.35 0.32
325 3 1.737e+01 6.683e+00 -4.311e-01 0.33 0.35 0.32
326 3 1.926e+01 8.323e+00 -4.437e-01 0.33 0.34 0.32
327 2 1.927e+01 6.605e+00 1.402e+00 0.33 0.35 0.33
328 2 1.741e+01 8.401e+00 1.182e+00 0.34 0.34 0.32
329 1 2.113e+01 6.662e+00 -5.249e-01 0.33 0.34 0.33
330 2 2.284e+01 8.446e+00 -4.061e-01 0.33 0.34 0.33
331 3 2.268e+01 6.608e+00 1.401e+00 0.33 0.34 0.33
332 1 2.093e+01 8.398e+00 1.518e+00 0.33 0.34 0.32
333 2 2.456e+01 6.524e+00 -4.767e-01 0.33 0.33 0.34
334 2 2.636e+01 8.596e+00 -4.666e-01 0.34 0.32 0.34
335 3 2.609e+01 7.012e+00 1.277e+00 0.33 0.33 0.34
336 2 2.452e+01 8.459e+00 1.311e+00 0.34 0.33 0.33
337 1 2.809e+01 6.752e+00 -7.038e-01 0.34 0.32 0.34
338 3 2.998e+01 8.480e+00 -6.692e-01 0.34 0.32 0.34
339 3 3.020e+01 6.700e+00 1.413e+00 0.34 0.33 0.34
340 2 2.832e+01 8.344e+00 1.149e+00 0.33 0.33 0.34
341 2 3.179e+01 6.690e+00 -3.912e-01 0.33 0.32 0.34
342 3 3.365e+01 8.612e+00 -6.728e-01 0.33 0.32 0.35
343 1 3.344e+01 6.770e+00 1.285e+00 0.33 0.32 0.34
344 3 3.177e+01 8.752e+00 1.108e+00 0.33 0.33 0.34
345 2 3.510e+01 6.746e+00 -3.810e-01 0.33 0.32 0.35
346 3 3.693e+01 8.324e+00 -2.893e-01 0.33 0.32 0.34
347 3 3.698e+01 6.518e+00 1.164e+00 0.33 0.32 0.34
348 2 3.539e+01 8.597e+00 1.387e+00 0.34 0.32 0.35
349 1 3.888e+01 6.633e+00 -4.478e-01 0.33 0.32 0.34
350 2 4.088e+01 8.379e+00 -4.317e-01 0.34 0.33 0.33
351 1 4.083e+01 6.604e+00 1.211e+00 0.33 0.33 0.34
352 1 3.879e+01 8.237e+00 1.135e+00 0.34 0.32 0.34
353 1 4.251e+01 6.299e+00 -5.811e-01 0.34 0.33 0.33
354 3 4.441e+01 8.233e+00 -4.935e-01 0.34 0.33 0.33
355 1 4.432e+01 6.431e+00 1.410e+00 0.34 0.33 0.33
356 1 4.260e+01 8.349e+00 1.320e+00 0.34 0.33 0.34
357 2 4.605e+01 6.453e+00 -3.719e-01 0.34 0.32 0.33
358 3 4.810e+01 8.333e+00 -5.797e-01 0.35 0.32 0.33
359 1 4.788e+01 6.559e+00 1.207e+00 0.34 0.32 0.33
360 3 4.609e+01 8.370e+00 1.059e+00 0.34 0.33 0.33
361 3 4.972e+01 6.495e+00 -7.171e-01 0.34 0.32 0.33
362 2 5.159e+01 8.412e+00 -8.297e-01 0.35 0.32 0.33
363 1 5.158e+01 6.705e+00 1.328e+00 0.35 0.32 0.33
364 3 5.002e+01 8.627e+00 1.125e+00 0.34 0.33 0.33
365 2 5.301e+01 6.514e+00 -5.399e-01 0.35 0.33 0.32
366 1 5.469e+01 8.235e+00 -5.169e-01 0.35 0.33 0.32
367 1 5.501e+01 6.646e+00 1.279e+00 0.35 0.33 0.32
368 3 5.322e+01 8.451e+00 1.450e+00 0.35 0.33 0.33
369 2 5.688e+01 6.481e+00 -5.116e-01 0.35 0.34 0.31
370 3 5.875e+01 8.460e+00 -4.980e-01 0.35 0.34 0.31
371 1 5.858e+01 6.721e+00 1.404e+00 0.35 0.34 0.32
372 2 5.680e+01 8.469e+00 8.306e-01 0.35 0.34 0.31
373 2 6.048e+01 6.659e+00 -6.209e-01 0.35 0.34 0.31
374 2 6.222e+01 8.364e+00 -3.791e-01 0.36 0.33 0.31
375 1 6.229e+01 6.590e+00 1.496e+00 0.36 0.34 0.31
376 3 6.044e+01 8.429e+00 1.268e+00 0.36 0.33 0.31
377 1 6.398e+01 6.704e+00 -3.671e-01 0.36 0.33 0.31
378 1 6.587e+01 8.454e+00 -4.643e-01 0.36 0.33 0.31
379 2 6.612e+01 6.572e+00 1.356e+00 0.36 0.33 0.31
380 1 6.422e+01 8.340e+00 1.304e+00 0.35 0.34 0.31
381 1 6.745e+01 6.537e+00 -5.283e-01 0.35 0.33 0.31
382 3 6.930e+01 8.455e+00 -4.016e-01 0.35 0.33 0.31
383 1 6.941e+01 6.789e+00 1.368e+00 0.35 0.34 0.31
384 2 6.765e+01 8.684e+00 1.320e+00 0.36 0.33 0.31
385 1 7.102e+01 6.907e+00 -5.492e-01 0.35 0.34 0.32
386 2 7.279e+01 8.601e+00 -8.043e-01 0.35 0.33 0.31
387 1 7.288e+01 6.765e+00 1.050e+00 0.35 0.33 0.31
388 1 7.118e+01 8.527e+00 1.216e+00 0.35 0.33 0.31
389 2 7.486e+01 6.639e+00 -6.509e-01 0.35 0.33 0.32
390 2 7.647e+01 8.794e+00 -4.503e-01 0.35 0.33 0.32
391 2 7.646e+01 6.647e+00 1.311e+00 0.35 0.33 0.32
392 2 7.459e+01 8.585e+00 1.133e+00 0.35 0.33 0.32
393 1 7.811e+01 6.729e+00 -4.091e-01 0.35 0.33 0.32
394 1 7.984e+01 8.492e+00 -6.755e-01 0.35 0.33 0.32
395 1 8.031e+01 6.594e+00 1.248e+00 0.36 0.32 0.32
396 2 7.835e+01 8.304e+00 1.322e+00 0.35 0.33 0.32
397 2 8.199e+01 6.599e+00 -5.824e-01 0.35 0.33 0.33
398 1 8.381e+01 8.642e+00 -4.663e-01 0.35 0.33 0.33
399 2 8.374e+01 6.582e+00 1.252e+00 0.35 0.33 0.33
400 1 8.210e+01 8.378e+00 1.154e+00 0.35 0.33 0.32
401 2 8.550e+01 6.840e+00 -4.450e-01 0.35 0.32 0.33
402 3 8.720e+01 8.333e+00 -4.708e-01 0.35 0.32 0.33
403 2 8.717e+01 6.625e+00 1.465e+00 0.35 0.32 0.33
404 2 8.551e+01 8.576e+00 1.196e+00 0.35 0.32 0.33
405 2 8.909e+01 6.555e+00 -3.860e-01 0.35 0.32 0.33
406 2 9.053e+01 8.377e+00 -6.787e-01 0.34 0.32 0.33
407 3 9.077e+01 6.751e+00 1.236e+00 0.34 0.32 0.33
408 3 8.882e+01 8.456e+00 1.322e+00 0.35 0.32 0.33
409 3 9.236e+01 6.848e+00 -5.752e-01 0.34 0.32 0.33
410 2 9.405e+01 8.356e+00 -6.646e-01 0.34 0.33 0.33
411 1 9.436e+01 6.717e+00 1.267e+00 0.34 0.33 0.33
412 2 9.251e+01 8.529e+00 1.086e+00 0.33 0.33 0.34
413 3 9.623e+01 6.623e+00 -6.733e-01 0.34 0.33 0.33
414 2 9.816e+01 8.279e+00 -5.022e-01 0.34 0.33 0.33
415 2 9.794e+01 6.662e+00 1.343e+00 0.34 0.32 0.34
416 1 9.609e+01 8.451e+00 9.223e-01 0.34 0.33 0.33
417 1 9.984e+01 6.476e+00 -3.857e-01 0.34 0.32 0.34
418 3 1.018e+02 8.140e+00 -5.549e-01 0.34 0.32 0.34
419 2 1.016e+02 6.381e+00 1.544e+00 0.33 0.33 0.34
420 2 9.979e+01 8.386e+00 1.512e+00 0.34 0.33 0.33
421 2 1.032e+02 6.311e+00 -4.379e-01 0.34 0.32 0.34
422 2 1.053e+02 8.421e+00 -7.690e-01 0.34 0.32 0.34
423 2 1.052e+02 6.516e+00 1.209e+00 0.34 0.32 0.34
424 2 1.034e+02 8.145e+00 1.057e+00 0.33 0.32 0.34
425 3 1.069e+02 6.581e+00 -6.653e-01 0.34 0.32 0.34
426 3 1.086e+02 8.428e+00 -6.302e-01 0.33 0.32 0.34
427 3 1.087e+02 6.562e+00 1.375e+00 0.33 0.33 0.34
428 3 1.069e+02 8.309e+00 1.248e+00 0.33 0.32 0.34
429 1 1.106e+02 6.631e+00 -4.943e-01 0.33 0.32 0.34
430 3 1.123e+02 8.345e+00 -3.038e-01 0.33 0.33 0.34
431 1 1.125e+02 6.438e+00 1.274e+00 0.33 0.32 0.35
432 2 1.105e+02 8.211e+00 1.179e+00 0.33 0.32 0.34
433 2 1.143e+02 6.597e+00 -4.029e-01 0.32 0.33 0.35
434 3 1.161e+02 8.407e+00 -7.470e-01 0.33 0.33 0.35
435 3 1.161e+02 6.642e+00 1.083e+00 0.32 0.33 0.35
436 2 1.143e+02 8.329e+00 1.266e+00 0.33 0.33 0.35
437 3 1.180e+02 6.673e+00 -6.219e-01 0.32 0.33 0.35
438 1 1.197e+02 8.333e+00 -5.707e-01 0.32 0.34 0.34
439 2 1.197e+02 6.662e+00 1.306e+00 0.32 0.33 0.35
440 3 1.179e+02 8.355e+00 1.371e+00 0.32 0.33 0.35
441 3 1.212e+02 6.608e+00 -5.381e-01 0.32 0.33 0.34
442 3 1.233e+02 8.316e+00 -3.982e-01 0.32 0.34 0.34
443 1 1.232e+02 6.832e+00 1.398e+00 0.32 0.34 0.34
444 1 1.215e+02 8.496e+00 1.108e+00 0.32 0.34 0.34
445 3 1.250e+02 6.583e+00 -4.322e-01 0.32 0.34 0.34
446 3 1.268e+02 8.599e+00 -4.101e-01 0.32 0.34 0.34
447 1 1.268e+02 6.584e+00 1.158e+00 0.32 0.34 0.34
448 3 1.250e+02 8.595e+00 1.474e+00 0.32 0.34 0.34
449 3 1.286e+02 6.569e+00 -3.125e-01 0.32 0.34 0.34
450 3 1.305e+02 8.720e+00 -5.258e-01 0.32 0.34 0.34
451 1 1.304e+02 6.930e+00 1.226e+00 0.32 0.34 0.33
452 1 1.284e+02 8.594e+00 1.119e+00 0.32 0.34 0.34
453 1 1.321e+02 6.620e+00 -4.417e-01 0.32 0.35 0.33
454 1 1.341e+02 8.365e+00 -5.988e-01 0.32 0.35 0.33
455 1 1.340e+02 6.681e+00 1.268e+00 0.32 0.35 0.34
456 1 1.324e+02 8.512e+00 1.243e+00 0.32 0.35 0.34
457 3 -5.008e-01 1.025e+01 -4.142e-01 0.32 0.35 0.34
458 1 1.322e+00 1.180e+01 -5.565e-01 0.32 0.35 0.33
459 3 1.284e+00 1.013e+01 1.271e+00 0.32 0.35 0.33
460 2 -4.095e-01 1.203e+01 1.375e+00 0.31 0.35 0.33
461 1 3.189e+00 1.032e+01 -4.952e-01 0.32 0.35 0.33
462 2 4.769e+00 1.226e+01 -6.269e-01 0.32 0.35 0.33
463 1 5.084e+00 1.015e+01 1.277e+00 0.33 0.35 0.32
464 2 3.096e+00 1.196e+01 1.268e+00 0.32 0.35 0.33
465 3 6.737e+00 1.019e+01 -6.349e-01 0.33 0.35 0.32
466 1 8.551e+00 1.203e+01 -5.109e-01 0.33 0.35 0.32
467 3 8.479e+00 1.009e+01 1.022e+00 0.32 0.35 0.32
468 3 6.466e+00 1.215e+01 1.354e+00 0.33 0.35 0.32
469 1 1.032e+01 1.009e+01 -8.120e-01 0.32 0.35 0.32
470 3 1.194e+01 1.183e+01 -6.233e-01 0.33 0.35 0.32
471 3 1.197e+01 1.003e+01 1.185e+00 0.33 0.35 0.32
472 2 1.040e+01 1.186e+01 1.141e+00 0.33 0.35 0.32
473 2 1.374e+01 1.014e+01 -6.658e-01 0.33 0.35 0.32
474 2 1.556e+01 1.215e+01 -5.316e-01 0.33 0.34 0.32
475 1 1.557e+01 1.024e+01 1.160e+00 0.33 0.35 0.32
476 1 1.373e+01 1.185e+01 1.044e+00 0.33 0.35 0.32
477 3 1.732e+01 9.991e+00 -6.649e-01 0.33 0.35 0.32
478 3 1.911e+01 1.194e+01 -5.208e-01 0.34 0.34 0.32
479 2 1.881e+01 1.020e+01 1.244e+00 0.33 0.34 0.32
480 3 1.727e+01 1.198e+01 9.274e-01 0.34 0.34 0.32
481 1 2.129e+01 1.022e+01 -2.720e-01 0.34 0.34 0.32
482 1 2.276e+01 1.221e+01 -4.519e-01 0.33 0.33 0.33
483 3 2.296e+01 1.027e+01 1.380e+00 0.33 0.34 0.33
484 1 2.093e+01 1.202e+01 1.188e+00 0.34 0.34 0.32
485 1 2.452e+01 1.028e+01 -4.931e-01 0.34 0.33 0.33
486 3 2.640e+01 1.204e+01 -5.671e-01 0.34 0.32 0.34
487 2 2.641e+01 1.029e+01 1.139e+00 0.33 0.33 0.34
488 3 2.440e+01 1.192e+01 1.369e+00 0.33 0.34 0.33
489 3 2.817e+01 1.025e+01 -6.168e-01 0.34 0.32 0.34
490 2 2.976e+01 1.202e+01 -2.759e-01 0.34 0.32 0.34
491 1 2.992e+01 1.013e+01 1.278e+00 0.34 0.33 0.34
492 3 2.820e+01 1.194e+01 1.199e+00 0.33 0.33 0.34
493 3 3.174e+01 1.038e+01 -4.794e-01 0.33 0.32 0.34
494 1 3.376e+01 1.201e+01 -5.683e-01 0.34 0.32 0.34
495 2 3.370e+01 1.041e+01 1.317e+00 0.34 0.33 0.34
496 2 3.172e+01 1.204e+01 1.271e+00 0.33 0.33 0.34
497 3 3.541e+01 1.037e+01 -4.069e-01 0.33 0.33 0.34
498 1 3.719e+01 1.215e+01 -4.920e-01 0.34 0.33 0.33
499 2 3.728e+01 1.017e+01 1.415e+00 0.33 0.33 0.34
500 3 3.555e+01 1.210e+01 1.263e+00 0.34 0.33 0.34
501 1 3.882e+01 1.015e+01 -6.260e-01 0.33 0.32 0.34
502 2 4.077e+01 1.198e+01 -4.717e-01 0.33 0.34 0.33
503 3 4.070e+01 9.986e+00 1.093e+00 0.34 0.33 0.34
504 1 3.887e+01 1.194e+01 1.178e+00 0.33 0.33 0.34
505 3 4.271e+01 1.010e+01 -6.003e-01 0.34 0.33 0.33
506 2 4.418e+01 1.187e+01 -3.661e-01 0.34 0.33 0.33
507 3 4.435e+01 1.015e+01 1.413e+00 0.34 0.33 0.33
508 1 4.231e+01 1.190e+01 1.469e+00 0.33 0.34 0.33
509 3 4.617e+01 1.011e+01 -5.213e-01 0.34 0.33 0.33
510 1 4.809e+01 1.194e+01 -3.248e-01 0.34 0.33 0.33
511 1 4.778e+01 1.018e+01 1.248e+00 0.34 0.33 0.33
512 3 4.594e+01 1.184e+01 1.312e+00 0.34 0.33 0.33
513 2 4.989e+01 1.018e+01 -4.747e-01 0.35 0.33 0.33
514 2 5.144e+01 1.202e+01 -4.852e-01 0.34 0.33 0.33
515 3 5.175e+01 1.024e+01 1.202e+00 0.35 0.32 0.33
516 3 4.974e+01 1.192e+01 1.294e+00 0.34 0.33 0.33
517 2 5.318e+01 1.015e+01 -3.499e-01 0.35 0.33 0.32
518 1 5.514e+01 1.217e+01 -3.880e-01 0.35 0.33 0.32
519 3 5.507e+01 1.027e+01 1.196e+00 0.34 0.33 0.32
520 1 5.345e+01 1.217e+01 1.330e+00 0.35 0.33 0.33
521 1 5.686e+01 1.034e+01 -6.057e-01 0.35 0.34 0.31
522 3 5.858e+01 1.212e+01 -2.779e-01 0.35 0.34 0.31
523 1 5.870e+01 1.017e+01 1.355e+00 0.35 0.34 0.31
524 1 5.696e+01 1.202e+01 1.305e+00 0.34 0.34 0.32
525 3 6.045e+01 1.016e+01 -6.412e-01 0.35 0.34 0.31
526 3 6.217e+01 1.188e+01 -4.803e-01 0.35 0.33 0.31
527 2 6.216e+01 1.018e+01 1.283e+00 0.36 0.33 0.32
528 2 6.052e+01 1.204e+01 1.211e+00 0.35 0.33 0.31
529 3 6.412e+01 1.020e+01 -3.604e-01 0.36 0.34 0.31
530 1 6.588e+01 1.231e+01 -3.686e-01 0.36 0.33 0.31
531 2 6.574e+01 1.029e+01 1.409e+00 0.36 0.33 0.31
532 1 6.402e+01 1.215e+01 1.569e+00 0.35 0.34 0.31
533 1 6.739e+01 1.046e+01 -4.495e-01 0.35 0.33 0.31
534 2 6.933e+01 1.221e+01 -4.653e-01 0.35 0.33 0.31
535 2 6.947e+01 1.034e+01 1.215e+00 0.36 0.33 0.31
536 1 6.754e+01 1.218e+01 1.310e+00 0.36 0.33 0.31
537 1 7.102e+01 1.031e+01 -5.977e-01 0.35 0.33 0.31
538 2 7.295e+01 1.209e+01 -7.784e-01 0.35 0.33 0.32
539 3 7.299e+01 1.024e+01 1.335e+00 0.35 0.33 0.31
540 3 7.130e+01 1.196e+01 1.101e+00 0.36 0.33 0.31
541 1 7.468e+01 1.030e+01 -5.183e-01 0.35 0.33 0.32
542 2 7.645e+01 1.202e+01 -8.290e-01 0.35 0.32 0.32
543 2 7.637e+01 1.046e+01 1.063e+00 0.35 0.33 0.32
544 1 7.500e+01 1.209e+01 1.151e+00 0.35 0.33 0.32
545 2 7.813e+01 1.025e+01 -5.404e-01 0.35 0.33 0.32
546 3 7.994e+01 1.184e+01 -6.135e-01 0.35 0.32 0.33
547 1 8.009e+01 1.007e+01 1.226e+00 0.35 0.33 0.32
548 2 7.825e+01 1.210e+01 1.005e+00 0.35 0.32 0.33
549 3 8.178e+01 1.026e+01 -5.790e-01 0.35 0.33 0.32
550 2 8.350e+01 1.213e+01 -6.411e-01 0.35 0.32 0.33
551 2 8.354e+01 1.033e+01 1.153e+00 0.35 0.32 0.33
552 1 8.174e+01 1.200e+01 1.233e+00 0.35 0.32 0.33
553 3 8.528e+01 1.026e+01 -5.857e-01 0.35 0.32 0.33
554 3 8.726e+01 1.201e+01 -7.528e-01 0.34 0.33 0.33
555 3 8.705e+01 1.036e+01 1.033e+00 0.35 0.33 0.33
556 2 8.533e+01 1.204e+01 9.390e-01 0.34 0.32 0.33
557 2 8.886e+01 1.015e+01 -5.172e-01 0.34 0.32 0.33
558 2 9.063e+01 1.204e+01 -5.371e-01 0.34 0.33 0.33
559 3 9.088e+01 1.034e+01 1.037e+00 0.34 0.33 0.33
560 3 8.905e+01 1.198e+01 1.275e+00 0.34 0.33 0.33
561 3 9.239e+01 1.012e+01 -8.525e-01 0.34 0.33 0.33
562 3 9.409e+01 1.205e+01 -7.427e-01 0.34 0.33 0.33
563 1 9.425e+01 1.023e+01 1.184e+00 0.34 0.33 0.34
564 2 9.257e+01 1.205e+01 1.003e+00 0.33 0.33 0.33
565 1 9.608e+01 1.033e+01 -7.011e-01 0.34 0.33 0.33
566 1 9.811e+01 1.198e+01 -5.780e-01 0.34 0.33 0.33
567 1 9.794e+01 1.027e+01 1.190e+00 0.34 0.33 0.33
568 1 9.602e+01 1.199e+01 1.175e+00 0.34 0.33 0.33
569 3 9.985e+01 1.007e+01 -4.589e-01 0.34 0.33 0.34
570 2 1.015e+02 1.217e+01 -6.184e-01 0.34 0.33 0.33
571 1 1.018e+02 1.019e+01 1.296e+00 0.34 0.32 0.34
572 2 9.983e+01 1.175e+01 1.271e+00 0.34 0.33 0.33
573 2 1.036e+02 1.017e+01 -4.734e-01 0.33 0.33 0.34
575 2 1.053e+02 1.009e+01 1.252e+00 0.34 0.32 0.34
577 2 1.071e+02 1.031e+01 -5.641e-01 0.34 0.32 0.35
579 3 1.087e+02 1.023e+01 1.378e+00 0.34 0.32 0.34
581 3 1.104e+02 1.008e+01 -5.141e-01 0.34 0.32 0.34