ITEM: TIMESTEP
300000
ITEM: NUMBER OF ATOMS
20006
ITEM: BOX BOUNDS xy xz yz pp pp pp
                     -1.10097076015906e+00 2.47890724275373e+02 0.00000000000000e+00
-4.34172097378323e-01	2.24771490262060e+02	0.00000000000000e+00
-1.68250980898020e-01	1.56853301368728e+02	0.00000000000000e+00
ITEM: ATOMS id type x y z p1 p2 p3
665 1 1.847e+02 9.540e+00 1.488e+02 0.92 0.08 0.00
803 1 1.812e+02 1.167e+01 1.490e+02 0.93 0.07 0.00
2207 1 1.883e+02 3.672e+01 1.490e+02 0.90 0.10 0.00
2617 1 1.708e+02 4.377e+01 1.489e+02 0.92 0.08 0.00
7367 1 1.624e+02 1.397e+02 1.530e+02 0.91 0.09 0.00
7817 1 2.061e+02 1.379e+02 1.494e+02 0.92 0.08 0.00
7923 1 1.521e+02 1.525e+02 1.527e+02 0.92 0.08 0.00
11695 1 1.311e+02 2.076e+02 1.490e+02 0.93 0.07 0.00
11701 1 1.418e+02 2.100e+02 1.488e+02 0.92 0.08 0.00
11971 1 1.237e+02 2.127e+02 1.491e+02 0.91 0.09 0.00
12127 1 1.525e+02 2.173e+02 1.489e+02 0.90 0.10 0.00
25283 1 1.447e+02 -4.411e-01 4.882e+00 0.90 0.10 0.00
25411 2 1.233e+02 2.083e+00 4.759e+00 0.90 0.10 0.00
25551 1 1.234e+02 4.517e+00 4.890e+00 0.91 0.09 0.00
26531 2 1.233e+02 2.219e+01 4.922e+00 0.91 0.09 0.00
27791 1 1.234e+02 4.466e+01 4.774e+00 0.92 0.08 0.00
27811 1 1.590e+02 4.457e+01 4.940e+00 0.90 0.10 0.00
27837 1 2.051e+02 4.462e+01 4.882e+00 0.91 0.09 0.00
28491 1 1.234e+02 5.728e+01 4.750e+00 0.90 0.10 0.00
30325 1 1.485e+02 8.967e+01 4.830e+00 0.91 0.09 0.00
30329 1 1.554e+02 8.970e+01 4.858e+00 0.90 0.10 0.00
30337 2 1.696e+02 8.956e+01 4.773e+00 0.91 0.09 0.00
30341 1 1.768e+02 8.962e+01 4.796e+00 0.90 0.10 0.00
30343 2 1.805e+02 8.957e+01 4.794e+00 0.90 0.10 0.00
30355 1 2.016e+02 8.971e+01 4.768e+00 0.91 0.09 0.00
30357 2 2.051e+02 8.979e+01 4.829e+00 0.90 0.10 0.00
32271 1 1.234e+02 1.246e+02 4.773e+00 0.91 0.09 0.00
32691 1 1.233e+02 1.323e+02 4.768e+00 0.91 0.09 0.00
35345 1 1.126e+02 1.798e+02 4.805e+00 0.91 0.09 0.00
35357 2 1.341e+02 1.797e+02 4.872e+00 0.92 0.08 0.00
35359 2 1.375e+02 1.797e+02 4.824e+00 0.90 0.10 0.00
35361 1 1.411e+02 1.799e+02 4.921e+00 0.89 0.11 0.00
35365 1 1.483e+02 1.798e+02 4.751e+00 0.90 0.10 0.00
35367 1 1.518e+02 1.797e+02 4.775e+00 0.90 0.10 0.00
35371 2 1.591e+02 1.799e+02 4.644e+00 0.90 0.10 0.00
37855 1 9.491e+01 2.247e+02 7.487e+00 0.91 0.09 0.00
37859 2 1.021e+02 -4.129e-01 7.377e+00 0.91 0.09 0.00
37865 2 1.128e+02 -4.939e-01 7.350e+00 0.92 0.08 0.00
38151 1 1.233e+02 4.466e+00 7.298e+00 0.91 0.09 0.00
38851 1 1.235e+02 1.713e+01 7.383e+00 0.91 0.09 0.00
38991 1 1.234e+02 1.952e+01 7.396e+00 0.90 0.10 0.00
40411 1 1.590e+02 4.457e+01 7.289e+00 0.91 0.09 0.00
40423 1 1.805e+02 4.454e+01 7.333e+00 0.91 0.09 0.00
40951 1 1.235e+02 5.477e+01 7.259e+00 0.91 0.09 0.00
41511 1 1.234e+02 6.465e+01 7.401e+00 0.90 0.10 0.00
42350 1 1.217e+02 8.097e+01 8.400e+00 0.89 0.11 0.00
42351 1 1.235e+02 7.974e+01 7.254e+00 0.90 0.10 0.00
42750 1 8.592e+01 8.836e+01 8.562e+00 0.90 0.10 0.00
42927 1 1.520e+02 8.980e+01 7.333e+00 0.91 0.09 0.00
42929 1 1.555e+02 8.971e+01 7.344e+00 0.91 0.09 0.00
42933 2 1.626e+02 8.951e+01 7.316e+00 0.91 0.09 0.00
42935 2 1.661e+02 8.948e+01 7.349e+00 0.90 0.10 0.00
42943 1 1.802e+02 8.974e+01 7.280e+00 0.91 0.09 0.00
42947 1 1.875e+02 8.970e+01 7.318e+00 0.92 0.08 0.00
42949 2 1.910e+02 8.966e+01 7.386e+00 0.92 0.08 0.00
42951 1 1.946e+02 8.979e+01 7.372e+00 0.90 0.10 0.00
44171 2 1.233e+02 1.121e+02 7.061e+00 0.91 0.09 0.00
44311 1 1.234e+02 1.147e+02 7.050e+00 0.91 0.09 0.00
45851 1 1.232e+02 1.422e+02 7.168e+00 0.90 0.10 0.00
46131 1 1.235e+02 1.473e+02 7.310e+00 0.90 0.10 0.00
47937 1 9.837e+01 1.798e+02 7.432e+00 0.89 0.11 0.00
47945 1 1.128e+02 1.797e+02 7.296e+00 0.91 0.09 0.00
47957 1 1.340e+02 1.798e+02 7.344e+00 0.92 0.08 0.00
47959 1 1.377e+02 1.797e+02 7.452e+00 0.91 0.09 0.00
47965 1 1.484e+02 1.797e+02 7.248e+00 0.90 0.10 0.00
47969 1 1.553e+02 1.798e+02 7.399e+00 0.91 0.09 0.00
47973 1 1.626e+02 1.798e+02 7.295e+00 0.91 0.09 0.00
49491 1 1.234e+02 2.072e+02 7.266e+00 0.92 0.08 0.00
50611 1 1.235e+02 2.054e+00 9.823e+00 0.90 0.10 0.00
51311 1 1.234e+02 1.457e+01 9.847e+00 0.90 0.10 0.00
51591 1 1.235e+02 1.969e+01 9.891e+00 0.91 0.09 0.00
52431 1 1.234e+02 3.475e+01 9.837e+00 0.91 0.09 0.00
52571 1 1.233e+02 3.717e+01 9.899e+00 0.90 0.10 0.00
52711 1 1.233e+02 3.971e+01 9.863e+00 0.90 0.10 0.00
53013 1 1.625e+02 4.460e+01 9.723e+00 0.91 0.09 0.00
53021 1 1.766e+02 4.453e+01 9.857e+00 0.89 0.11 0.00
53023 1 1.803e+02 4.448e+01 9.822e+00 0.90 0.10 0.00
53691 1 1.233e+02 5.712e+01 9.752e+00 0.90 0.10 0.00
54950 1 1.215e+02 8.082e+01 1.087e+01 0.89 0.11 0.00
55090 1 1.216e+02 8.340e+01 1.103e+01 0.90 0.10 0.00
55208 1 8.248e+01 8.588e+01 1.095e+01 0.91 0.09 0.00
55210 1 8.594e+01 8.581e+01 1.096e+01 0.92 0.08 0.00
55227 1 1.162e+02 8.464e+01 9.713e+00 0.89 0.11 0.00
55229 1 1.198e+02 8.460e+01 9.655e+00 0.90 0.10 0.00
55349 1 8.411e+01 8.705e+01 9.743e+00 0.90 0.10 0.00
55350 1 8.587e+01 8.838e+01 1.095e+01 0.91 0.09 0.00
55351 1 8.766e+01 8.708e+01 9.834e+00 0.90 0.10 0.00
55353 1 9.127e+01 8.721e+01 9.716e+00 0.91 0.09 0.00
55513 2 1.269e+02 8.975e+01 9.469e+00 0.90 0.10 0.00
55517 1 1.342e+02 8.969e+01 9.737e+00 0.90 0.10 0.00
55523 2 1.448e+02 8.955e+01 9.756e+00 0.91 0.09 0.00
55529 1 1.555e+02 8.946e+01 9.763e+00 0.91 0.09 0.00
55547 1 1.875e+02 8.977e+01 9.822e+00 0.90 0.10 0.00
55551 1 1.945e+02 8.985e+01 9.829e+00 0.91 0.09 0.00
55557 1 2.052e+02 8.962e+01 9.707e+00 0.89 0.11 0.00
56071 1 1.233e+02 9.957e+01 9.346e+00 0.91 0.09 0.00
56351 1 1.233e+02 1.046e+02 9.340e+00 0.90 0.10 0.00
56631 1 1.233e+02 1.097e+02 9.432e+00 0.90 0.10 0.00
58871 1 1.234e+02 1.499e+02 9.853e+00 0.90 0.10 0.00
60271 1 1.233e+02 1.747e+02 9.683e+00 0.91 0.09 0.00
60561 1 1.412e+02 1.798e+02 9.909e+00 0.91 0.09 0.00
60563 1 1.448e+02 1.797e+02 9.810e+00 0.91 0.09 0.00
60571 1 1.589e+02 1.796e+02 9.739e+00 0.91 0.09 0.00
60573 1 1.626e+02 1.797e+02 9.771e+00 0.89 0.11 0.00
61111 1 1.234e+02 1.897e+02 9.877e+00 0.91 0.09 0.00
63079 1 1.377e+02 2.247e+02 1.230e+01 0.92 0.08 0.00
63336 1 9.673e+01 5.957e+00 1.377e+01 0.91 0.09 0.00
63340 1 1.038e+02 5.767e+00 1.364e+01 0.92 0.08 0.00
63476 1 9.670e+01 8.423e+00 1.378e+01 0.91 0.09 0.00
63478 1 1.003e+02 8.380e+00 1.374e+01 0.92 0.08 0.00
63480 1 1.039e+02 8.327e+00 1.359e+01 0.92 0.08 0.00
63754 1 9.320e+01 1.336e+01 1.352e+01 0.90 0.10 0.00
63756 1 9.677e+01 1.328e+01 1.354e+01 0.91 0.09 0.00
63758 1 1.002e+02 1.332e+01 1.351e+01 0.92 0.08 0.00
63760 1 1.038e+02 1.334e+01 1.354e+01 0.91 0.09 0.00
63762 1 1.074e+02 1.334e+01 1.375e+01 0.92 0.08 0.00
63894 2 9.323e+01 1.576e+01 1.363e+01 0.92 0.08 0.00
63896 2 9.682e+01 1.586e+01 1.358e+01 0.91 0.09 0.00
63898 1 1.004e+02 1.588e+01 1.351e+01 0.92 0.08 0.00
63900 1 1.038e+02 1.593e+01 1.365e+01 0.91 0.09 0.00
63902 1 1.073e+02 1.592e+01 1.362e+01 0.91 0.09 0.00
64314 1 9.314e+01 2.332e+01 1.357e+01 0.91 0.09 0.00
64316 1 9.679e+01 2.342e+01 1.362e+01 0.92 0.08 0.00
64320 1 1.039e+02 2.342e+01 1.352e+01 0.91 0.09 0.00
64331 2 1.234e+02 2.212e+01 1.238e+01 0.92 0.08 0.00
64454 1 9.328e+01 2.579e+01 1.349e+01 0.93 0.07 0.00
64456 1 9.671e+01 2.603e+01 1.367e+01 0.92 0.08 0.00
64460 1 1.038e+02 2.589e+01 1.362e+01 0.91 0.09 0.00
64610 1 1.216e+02 2.842e+01 1.357e+01 0.91 0.09 0.00
64750 1 1.217e+02 3.099e+01 1.342e+01 0.91 0.09 0.00
64868 1 8.259e+01 3.329e+01 1.349e+01 0.90 0.10 0.00
64870 1 8.614e+01 3.329e+01 1.364e+01 0.91 0.09 0.00
64876 1 9.671e+01 3.341e+01 1.361e+01 0.91 0.09 0.00
65030 1 1.216e+02 3.583e+01 1.361e+01 0.90 0.10 0.00
65170 1 1.217e+02 3.834e+01 1.368e+01 0.91 0.09 0.00
65288 1 8.250e+01 4.077e+01 1.351e+01 0.90 0.10 0.00
65290 1 8.608e+01 4.082e+01 1.344e+01 0.91 0.09 0.00
65296 1 9.669e+01 4.089e+01 1.361e+01 0.92 0.08 0.00
65428 1 8.249e+01 4.325e+01 1.347e+01 0.91 0.09 0.00
65434 2 9.308e+01 4.336e+01 1.349e+01 0.91 0.09 0.00
65436 1 9.674e+01 4.343e+01 1.356e+01 0.92 0.08 0.00
65584 1 1.110e+02 4.579e+01 1.360e+01 0.91 0.09 0.00
65586 1 1.145e+02 4.576e+01 1.361e+01 0.91 0.09 0.00
65588 1 1.181e+02 4.588e+01 1.354e+01 0.92 0.08 0.00
65590 1 1.216e+02 4.587e+01 1.366e+01 0.91 0.09 0.00
65601 1 1.413e+02 4.465e+01 1.226e+01 0.91 0.09 0.00
65611 2 1.590e+02 4.464e+01 1.239e+01 0.90 0.10 0.00
65726 1 1.145e+02 4.832e+01 1.362e+01 0.91 0.09 0.00
65728 1 1.180e+02 4.829e+01 1.354e+01 0.91 0.09 0.00
65730 1 1.215e+02 4.837e+01 1.375e+01 0.92 0.08 0.00
65848 1 8.256e+01 5.094e+01 1.352e+01 0.91 0.09 0.00
65988 1 8.249e+01 5.341e+01 1.346e+01 0.90 0.10 0.00
66142 1 1.074e+02 5.593e+01 1.365e+01 0.92 0.08 0.00
66144 2 1.110e+02 5.591e+01 1.356e+01 0.92 0.08 0.00
66146 2 1.145e+02 5.588e+01 1.352e+01 0.91 0.09 0.00
66148 1 1.181e+02 5.595e+01 1.359e+01 0.93 0.07 0.00
66150 1 1.217e+02 5.592e+01 1.352e+01 0.92 0.08 0.00
66268 1 8.258e+01 5.832e+01 1.354e+01 0.92 0.08 0.00
66270 1 8.602e+01 5.845e+01 1.354e+01 0.92 0.08 0.00
66272 1 8.961e+01 5.840e+01 1.359e+01 0.92 0.08 0.00
66408 1 8.251e+01 6.087e+01 1.345e+01 0.91 0.09 0.00
66410 1 8.603e+01 6.093e+01 1.343e+01 0.93 0.07 0.00
66562 1 1.074e+02 6.338e+01 1.356e+01 0.91 0.09 0.00
66564 2 1.109e+02 6.338e+01 1.361e+01 0.91 0.09 0.00
66566 2 1.146e+02 6.349e+01 1.366e+01 0.91 0.09 0.00
66568 1 1.181e+02 6.350e+01 1.359e+01 0.90 0.10 0.00
66570 1 1.215e+02 6.350e+01 1.373e+01 0.90 0.10 0.00
66700 1 1.039e+02 6.589e+01 1.356e+01 0.92 0.08 0.00
66702 1 1.074e+02 6.584e+01 1.363e+01 0.91 0.09 0.00
66704 1 1.109e+02 6.591e+01 1.359e+01 0.91 0.09 0.00
66706 1 1.145e+02 6.596e+01 1.360e+01 0.90 0.10 0.00
66708 1 1.181e+02 6.588e+01 1.358e+01 0.90 0.10 0.00
66710 1 1.216e+02 6.594e+01 1.354e+01 0.89 0.11 0.00
67116 1 9.663e+01 7.330e+01 1.348e+01 0.90 0.10 0.00
67118 1 1.000e+02 7.332e+01 1.345e+01 0.91 0.09 0.00
67120 1 1.038e+02 7.334e+01 1.353e+01 0.92 0.08 0.00
67122 1 1.073e+02 7.322e+01 1.344e+01 0.91 0.09 0.00
67256 1 9.670e+01 7.573e+01 1.345e+01 0.90 0.10 0.00
67258 1 1.002e+02 7.580e+01 1.345e+01 0.91 0.09 0.00
67260 1 1.038e+02 7.579e+01 1.344e+01 0.92 0.08 0.00
67262 1 1.072e+02 7.590e+01 1.354e+01 0.91 0.09 0.00
67271 2 1.235e+02 7.464e+01 1.233e+01 0.91 0.09 0.00
67530 1 8.597e+01 8.088e+01 1.337e+01 0.91 0.09 0.00
67532 1 8.951e+01 8.083e+01 1.353e+01 0.92 0.08 0.00
67534 1 9.304e+01 8.087e+01 1.338e+01 0.91 0.09 0.00
67536 1 9.656e+01 8.084e+01 1.352e+01 0.90 0.10 0.00
67670 1 8.594e+01 8.334e+01 1.348e+01 0.91 0.09 0.00
67672 1 8.946e+01 8.325e+01 1.343e+01 0.91 0.09 0.00
67674 1 9.300e+01 8.331e+01 1.338e+01 0.92 0.08 0.00
67676 1 9.651e+01 8.330e+01 1.345e+01 0.91 0.09 0.00
67678 1 1.002e+02 8.329e+01 1.341e+01 0.91 0.09 0.00
67822 2 1.072e+02 8.577e+01 1.339e+01 0.93 0.07 0.00
67824 1 1.108e+02 8.578e+01 1.341e+01 0.92 0.08 0.00
67826 1 1.144e+02 8.594e+01 1.341e+01 0.91 0.09 0.00
67827 1 1.161e+02 8.471e+01 1.222e+01 0.89 0.11 0.00
67828 1 1.179e+02 8.602e+01 1.335e+01 0.90 0.10 0.00
67829 1 1.197e+02 8.469e+01 1.215e+01 0.90 0.10 0.00
67830 1 1.215e+02 8.583e+01 1.337e+01 0.90 0.10 0.00
67951 1 8.770e+01 8.708e+01 1.228e+01 0.92 0.08 0.00
67953 1 9.118e+01 8.710e+01 1.231e+01 0.92 0.08 0.00
67962 1 1.073e+02 8.833e+01 1.342e+01 0.91 0.09 0.00
67964 1 1.108e+02 8.832e+01 1.340e+01 0.92 0.08 0.00
67966 1 1.143e+02 8.837e+01 1.344e+01 0.91 0.09 0.00
67968 1 1.179e+02 8.851e+01 1.338e+01 0.90 0.10 0.00
67970 1 1.215e+02 8.836e+01 1.332e+01 0.91 0.09 0.00
68110 1 1.215e+02 9.080e+01 1.327e+01 0.91 0.09 0.00
68113 1 1.268e+02 8.957e+01 1.188e+01 0.90 0.10 0.00
68125 1 1.484e+02 8.962e+01 1.220e+01 0.92 0.08 0.00
68129 1 1.555e+02 8.958e+01 1.227e+01 0.92 0.08 0.00
68135 1 1.661e+02 8.959e+01 1.219e+01 0.91 0.09 0.00
68143 1 1.804e+02 8.961e+01 1.234e+01 0.91 0.09 0.00
68250 1 1.215e+02 9.332e+01 1.311e+01 0.91 0.09 0.00
68370 1 8.602e+01 9.581e+01 1.338e+01 0.92 0.08 0.00
68508 1 8.233e+01 9.827e+01 1.344e+01 0.91 0.09 0.00
68512 1 8.960e+01 9.816e+01 1.342e+01 0.93 0.07 0.00
68658 1 1.001e+02 1.009e+02 1.324e+01 0.91 0.09 0.00
68660 1 1.037e+02 1.010e+02 1.334e+01 0.90 0.10 0.00
68662 1 1.072e+02 1.010e+02 1.319e+01 0.90 0.10 0.00
68664 1 1.108e+02 1.010e+02 1.308e+01 0.90 0.10 0.00
68666 1 1.143e+02 1.010e+02 1.306e+01 0.91 0.09 0.00
68668 1 1.179e+02 1.010e+02 1.292e+01 0.91 0.09 0.00
69070 1 8.594e+01 1.083e+02 1.334e+01 0.91 0.09 0.00
69072 1 8.942e+01 1.084e+02 1.337e+01 0.91 0.09 0.00
69074 1 9.282e+01 1.085e+02 1.338e+01 0.91 0.09 0.00
69076 1 9.646e+01 1.083e+02 1.306e+01 0.91 0.09 0.00
69078 1 1.001e+02 1.084e+02 1.316e+01 0.91 0.09 0.00
69210 1 8.584e+01 1.108e+02 1.345e+01 0.90 0.10 0.00
69212 1 8.932e+01 1.109e+02 1.337e+01 0.91 0.09 0.00
69214 1 9.297e+01 1.110e+02 1.333e+01 0.91 0.09 0.00
69216 1 9.645e+01 1.108e+02 1.322e+01 0.92 0.08 0.00
69218 1 1.000e+02 1.111e+02 1.318e+01 0.91 0.09 0.00
69366 1 1.144e+02 1.134e+02 1.295e+01 0.91 0.09 0.00
69368 1 1.179e+02 1.136e+02 1.297e+01 0.92 0.08 0.00
69370 2 1.216e+02 1.134e+02 1.295e+01 0.92 0.08 0.00
69506 1 1.143e+02 1.158e+02 1.304e+01 0.92 0.08 0.00
69510 1 1.217e+02 1.159e+02 1.303e+01 0.92 0.08 0.00
69628 1 8.247e+01 1.185e+02 1.343e+01 0.90 0.10 0.00
69630 1 8.588e+01 1.185e+02 1.341e+01 0.91 0.09 0.00
69768 1 8.248e+01 1.211e+02 1.346e+01 0.90 0.10 0.00
69770 1 8.580e+01 1.211e+02 1.356e+01 0.91 0.09 0.00
69920 1 1.035e+02 1.235e+02 1.324e+01 0.91 0.09 0.00
69922 1 1.072e+02 1.234e+02 1.303e+01 0.91 0.09 0.00
69924 1 1.108e+02 1.235e+02 1.312e+01 0.91 0.09 0.00
69928 1 1.180e+02 1.236e+02 1.300e+01 0.90 0.10 0.00
69931 1 1.234e+02 1.223e+02 1.186e+01 0.91 0.09 0.00
70334 1 9.305e+01 1.311e+02 1.342e+01 0.90 0.10 0.00
70336 1 9.647e+01 1.310e+02 1.342e+01 0.90 0.10 0.00
70338 1 1.001e+02 1.311e+02 1.357e+01 0.90 0.10 0.00
70340 1 1.036e+02 1.310e+02 1.332e+01 0.91 0.09 0.00
70342 1 1.073e+02 1.310e+02 1.331e+01 0.91 0.09 0.00
70474 1 9.304e+01 1.336e+02 1.341e+01 0.90 0.10 0.00
70476 1 9.655e+01 1.336e+02 1.331e+01 0.90 0.10 0.00
70478 1 1.001e+02 1.335e+02 1.342e+01 0.90 0.10 0.00
70480 2 1.036e+02 1.335e+02 1.338e+01 0.91 0.09 0.00
70482 1 1.073e+02 1.335e+02 1.337e+01 0.90 0.10 0.00
71331 1 1.233e+02 1.473e+02 1.230e+01 0.92 0.08 0.00
72731 2 1.233e+02 1.722e+02 1.225e+01 0.92 0.08 0.00
73153 1 1.268e+02 1.797e+02 1.229e+01 0.91 0.09 0.00
73155 1 1.305e+02 1.798e+02 1.233e+01 0.91 0.09 0.00
75651 1 8.792e+01 2.247e+02 1.479e+01 0.90 0.10 0.00
75661 1 1.056e+02 2.248e+02 1.493e+01 0.92 0.08 0.00
75671 1 1.233e+02 -3.682e-01 1.475e+01 0.92 0.08 0.00
75811 1 1.233e+02 2.107e+00 1.472e+01 0.90 0.10 0.00
75933 1 9.145e+01 4.567e+00 1.491e+01 0.90 0.10 0.00
75935 1 9.493e+01 4.666e+00 1.495e+01 0.90 0.10 0.00
75936 1 9.679e+01 5.826e+00 1.624e+01 0.91 0.09 0.00
75937 1 9.842e+01 4.646e+00 1.490e+01 0.91 0.09 0.00
75938 1 1.002e+02 5.871e+00 1.616e+01 0.91 0.09 0.00
75939 1 1.019e+02 4.571e+00 1.477e+01 0.91 0.09 0.00
75941 1 1.056e+02 4.661e+00 1.489e+01 0.92 0.08 0.00
75951 1 1.234e+02 4.710e+00 1.469e+01 0.91 0.09 0.00
76073 1 9.144e+01 7.096e+00 1.489e+01 0.90 0.10 0.00
76074 2 9.317e+01 8.322e+00 1.620e+01 0.91 0.09 0.00
76075 1 9.499e+01 7.146e+00 1.490e+01 0.90 0.10 0.00
76076 1 9.673e+01 8.366e+00 1.617e+01 0.90 0.10 0.00
76077 1 9.859e+01 7.078e+00 1.492e+01 0.90 0.10 0.00
76079 1 1.021e+02 7.126e+00 1.483e+01 0.92 0.08 0.00
76081 1 1.057e+02 7.138e+00 1.477e+01 0.92 0.08 0.00
76354 1 9.325e+01 1.332e+01 1.612e+01 0.91 0.09 0.00
76356 1 9.685e+01 1.336e+01 1.609e+01 0.91 0.09 0.00
76358 1 1.003e+02 1.330e+01 1.594e+01 0.91 0.09 0.00
76360 1 1.038e+02 1.336e+01 1.612e+01 0.91 0.09 0.00
76362 1 1.073e+02 1.340e+01 1.615e+01 0.92 0.08 0.00
76493 1 9.146e+01 1.461e+01 1.484e+01 0.90 0.10 0.00
76494 1 9.315e+01 1.571e+01 1.607e+01 0.91 0.09 0.00
76495 1 9.516e+01 1.457e+01 1.485e+01 0.91 0.09 0.00
76496 1 9.687e+01 1.584e+01 1.602e+01 0.92 0.08 0.00
76497 1 9.853e+01 1.472e+01 1.478e+01 0.92 0.08 0.00
76498 1 1.003e+02 1.573e+01 1.597e+01 0.91 0.09 0.00
76499 1 1.020e+02 1.455e+01 1.474e+01 0.91 0.09 0.00
76500 1 1.037e+02 1.585e+01 1.606e+01 0.90 0.10 0.00
76501 1 1.056e+02 1.461e+01 1.488e+01 0.91 0.09 0.00
76502 1 1.073e+02 1.592e+01 1.604e+01 0.91 0.09 0.00
76633 1 9.138e+01 1.713e+01 1.492e+01 0.91 0.09 0.00
76635 1 9.503e+01 1.701e+01 1.486e+01 0.92 0.08 0.00
76637 1 9.864e+01 1.715e+01 1.481e+01 0.92 0.08 0.00
76639 2 1.020e+02 1.711e+01 1.481e+01 0.91 0.09 0.00
76641 1 1.056e+02 1.710e+01 1.473e+01 0.91 0.09 0.00
76913 1 9.141e+01 2.212e+01 1.468e+01 0.91 0.09 0.00
76914 1 9.318e+01 2.331e+01 1.604e+01 0.91 0.09 0.00
76915 2 9.503e+01 2.204e+01 1.484e+01 0.92 0.08 0.00
76916 1 9.672e+01 2.334e+01 1.608e+01 0.91 0.09 0.00
76917 1 9.850e+01 2.222e+01 1.489e+01 0.91 0.09 0.00
76918 2 1.003e+02 2.346e+01 1.611e+01 0.92 0.08 0.00
76919 1 1.020e+02 2.206e+01 1.465e+01 0.91 0.09 0.00
76920 2 1.038e+02 2.335e+01 1.607e+01 0.91 0.09 0.00
76921 1 1.057e+02 2.210e+01 1.479e+01 0.91 0.09 0.00
77052 1 8.973e+01 2.586e+01 1.594e+01 0.92 0.08 0.00
77053 1 9.149e+01 2.464e+01 1.468e+01 0.92 0.08 0.00
77054 1 9.311e+01 2.585e+01 1.594e+01 0.92 0.08 0.00
77055 1 9.504e+01 2.453e+01 1.470e+01 0.92 0.08 0.00
77056 1 9.667e+01 2.582e+01 1.605e+01 0.91 0.09 0.00
77057 1 9.851e+01 2.473e+01 1.488e+01 0.92 0.08 0.00
77059 1 1.021e+02 2.466e+01 1.480e+01 0.91 0.09 0.00
77060 1 1.038e+02 2.578e+01 1.610e+01 0.90 0.10 0.00
77061 1 1.058e+02 2.463e+01 1.487e+01 0.90 0.10 0.00
77210 1 1.217e+02 2.856e+01 1.595e+01 0.92 0.08 0.00
77350 1 1.215e+02 3.095e+01 1.603e+01 0.92 0.08 0.00
77468 1 8.264e+01 3.341e+01 1.601e+01 0.91 0.09 0.00
77469 1 8.437e+01 3.210e+01 1.480e+01 0.91 0.09 0.00
77470 1 8.612e+01 3.335e+01 1.613e+01 0.92 0.08 0.00
77471 1 8.801e+01 3.212e+01 1.480e+01 0.91 0.09 0.00
77474 1 9.322e+01 3.350e+01 1.610e+01 0.93 0.07 0.00
77475 1 9.486e+01 3.215e+01 1.475e+01 0.92 0.08 0.00
77476 1 9.679e+01 3.332e+01 1.595e+01 0.91 0.09 0.00
77477 2 9.869e+01 3.225e+01 1.481e+01 0.92 0.08 0.00
77609 2 8.434e+01 3.461e+01 1.474e+01 0.91 0.09 0.00
77613 1 9.141e+01 3.469e+01 1.486e+01 0.92 0.08 0.00
77615 1 9.489e+01 3.465e+01 1.479e+01 0.91 0.09 0.00
77617 1 9.861e+01 3.459e+01 1.479e+01 0.92 0.08 0.00
77630 1 1.217e+02 3.592e+01 1.612e+01 0.90 0.10 0.00
77769 1 1.198e+02 3.714e+01 1.495e+01 0.91 0.09 0.00
77770 1 1.217e+02 3.831e+01 1.622e+01 0.91 0.09 0.00
77888 2 8.259e+01 4.078e+01 1.608e+01 0.91 0.09 0.00
77890 1 8.608e+01 4.091e+01 1.598e+01 0.91 0.09 0.00
77896 1 9.669e+01 4.099e+01 1.610e+01 0.91 0.09 0.00
77909 1 1.199e+02 3.956e+01 1.491e+01 0.91 0.09 0.00
78028 1 8.253e+01 4.342e+01 1.598e+01 0.90 0.10 0.00
78029 1 8.427e+01 4.211e+01 1.477e+01 0.91 0.09 0.00
78034 1 9.305e+01 4.333e+01 1.606e+01 0.92 0.08 0.00
78035 1 9.494e+01 4.232e+01 1.474e+01 0.91 0.09 0.00
78036 1 9.678e+01 4.341e+01 1.608e+01 0.92 0.08 0.00
78037 1 9.857e+01 4.230e+01 1.477e+01 0.92 0.08 0.00
78038 1 1.004e+02 4.350e+01 1.607e+01 0.91 0.09 0.00
78186 1 1.144e+02 4.594e+01 1.594e+01 0.90 0.10 0.00
78188 1 1.180e+02 4.590e+01 1.597e+01 0.91 0.09 0.00
78190 1 1.217e+02 4.587e+01 1.612e+01 0.91 0.09 0.00
78191 1 1.233e+02 4.466e+01 1.474e+01 0.91 0.09 0.00
78207 1 1.519e+02 4.463e+01 1.486e+01 0.91 0.09 0.00
78235 1 2.016e+02 4.469e+01 1.479e+01 0.92 0.08 0.00
78324 1 1.110e+02 4.836e+01 1.607e+01 0.90 0.10 0.00
78325 2 1.128e+02 4.713e+01 1.483e+01 0.91 0.09 0.00
78326 1 1.145e+02 4.837e+01 1.601e+01 0.91 0.09 0.00
78327 1 1.163e+02 4.711e+01 1.476e+01 0.90 0.10 0.00
78328 1 1.181e+02 4.839e+01 1.601e+01 0.91 0.09 0.00
78329 1 1.199e+02 4.713e+01 1.483e+01 0.92 0.08 0.00
78330 2 1.216e+02 4.853e+01 1.622e+01 0.91 0.09 0.00
78448 1 8.251e+01 5.083e+01 1.599e+01 0.91 0.09 0.00
78449 1 8.448e+01 4.967e+01 1.485e+01 0.91 0.09 0.00
78450 1 8.615e+01 5.085e+01 1.599e+01 0.92 0.08 0.00
78588 1 8.271e+01 5.333e+01 1.610e+01 0.92 0.08 0.00
78589 1 8.432e+01 5.216e+01 1.462e+01 0.91 0.09 0.00
78590 1 8.612e+01 5.344e+01 1.602e+01 0.92 0.08 0.00
78744 1 1.110e+02 5.589e+01 1.605e+01 0.90 0.10 0.00
78745 1 1.128e+02 5.474e+01 1.488e+01 0.91 0.09 0.00
78746 1 1.144e+02 5.596e+01 1.609e+01 0.91 0.09 0.00
78747 1 1.163e+02 5.474e+01 1.483e+01 0.92 0.08 0.00
78748 1 1.181e+02 5.588e+01 1.603e+01 0.91 0.09 0.00
78749 1 1.198e+02 5.467e+01 1.474e+01 0.91 0.09 0.00
78750 1 1.217e+02 5.587e+01 1.606e+01 0.92 0.08 0.00
78868 1 8.247e+01 5.824e+01 1.607e+01 0.92 0.08 0.00
78870 1 8.610e+01 5.840e+01 1.606e+01 0.93 0.07 0.00
78872 1 8.960e+01 5.841e+01 1.605e+01 0.91 0.09 0.00
78883 1 1.093e+02 5.719e+01 1.488e+01 0.92 0.08 0.00
78885 1 1.127e+02 5.723e+01 1.486e+01 0.90 0.10 0.00
78887 1 1.162e+02 5.726e+01 1.475e+01 0.91 0.09 0.00
78889 2 1.199e+02 5.717e+01 1.467e+01 0.91 0.09 0.00
79008 1 8.240e+01 6.079e+01 1.601e+01 0.91 0.09 0.00
79009 1 8.426e+01 5.962e+01 1.477e+01 0.92 0.08 0.00
79010 1 8.614e+01 6.084e+01 1.587e+01 0.92 0.08 0.00
79011 2 8.784e+01 5.972e+01 1.472e+01 0.92 0.08 0.00
79149 1 8.427e+01 6.203e+01 1.479e+01 0.92 0.08 0.00
79151 1 8.784e+01 6.214e+01 1.475e+01 0.92 0.08 0.00
79162 1 1.074e+02 6.339e+01 1.606e+01 0.91 0.09 0.00
79164 1 1.109e+02 6.343e+01 1.617e+01 0.91 0.09 0.00
79166 1 1.146e+02 6.356e+01 1.616e+01 0.90 0.10 0.00
79168 1 1.181e+02 6.349e+01 1.607e+01 0.90 0.10 0.00
79170 1 1.216e+02 6.349e+01 1.614e+01 0.91 0.09 0.00
79171 1 1.235e+02 6.220e+01 1.485e+01 0.91 0.09 0.00
79300 2 1.038e+02 6.576e+01 1.598e+01 0.93 0.07 0.00
79301 1 1.057e+02 6.461e+01 1.484e+01 0.92 0.08 0.00
79302 1 1.073e+02 6.591e+01 1.599e+01 0.91 0.09 0.00
79303 1 1.092e+02 6.455e+01 1.481e+01 0.92 0.08 0.00
79304 1 1.109e+02 6.605e+01 1.612e+01 0.90 0.10 0.00
79305 1 1.127e+02 6.474e+01 1.481e+01 0.90 0.10 0.00
79306 2 1.146e+02 6.603e+01 1.601e+01 0.91 0.09 0.00
79307 1 1.163e+02 6.469e+01 1.487e+01 0.90 0.10 0.00
79308 1 1.180e+02 6.597e+01 1.606e+01 0.90 0.10 0.00
79309 2 1.199e+02 6.470e+01 1.491e+01 0.90 0.10 0.00
79310 1 1.216e+02 6.603e+01 1.608e+01 0.91 0.09 0.00
79429 1 8.413e+01 6.717e+01 1.481e+01 0.91 0.09 0.00
79441 1 1.056e+02 6.716e+01 1.483e+01 0.91 0.09 0.00
79715 1 9.488e+01 7.195e+01 1.478e+01 0.91 0.09 0.00
79716 1 9.663e+01 7.334e+01 1.597e+01 0.90 0.10 0.00
79717 1 9.837e+01 7.204e+01 1.486e+01 0.91 0.09 0.00
79718 1 1.002e+02 7.333e+01 1.591e+01 0.91 0.09 0.00
79719 1 1.019e+02 7.206e+01 1.473e+01 0.91 0.09 0.00
79720 1 1.038e+02 7.336e+01 1.592e+01 0.91 0.09 0.00
79721 1 1.056e+02 7.205e+01 1.482e+01 0.91 0.09 0.00
79722 1 1.074e+02 7.331e+01 1.608e+01 0.90 0.10 0.00
79723 1 1.091e+02 7.217e+01 1.469e+01 0.90 0.10 0.00
79855 1 9.493e+01 7.452e+01 1.475e+01 0.91 0.09 0.00
79856 1 9.656e+01 7.582e+01 1.594e+01 0.91 0.09 0.00
79857 2 9.847e+01 7.449e+01 1.469e+01 0.91 0.09 0.00
79858 1 1.001e+02 7.581e+01 1.593e+01 0.91 0.09 0.00
79859 1 1.019e+02 7.453e+01 1.465e+01 0.91 0.09 0.00
79860 1 1.037e+02 7.582e+01 1.593e+01 0.91 0.09 0.00
79861 1 1.056e+02 7.465e+01 1.489e+01 0.90 0.10 0.00
79862 1 1.074e+02 7.590e+01 1.584e+01 0.91 0.09 0.00
80130 2 8.603e+01 8.072e+01 1.594e+01 0.92 0.08 0.00
80132 1 8.954e+01 8.082e+01 1.593e+01 0.91 0.09 0.00
80134 1 9.305e+01 8.085e+01 1.594e+01 0.92 0.08 0.00
80136 1 9.651e+01 8.075e+01 1.591e+01 0.91 0.09 0.00
80270 1 8.591e+01 8.342e+01 1.590e+01 0.91 0.09 0.00
80271 1 8.777e+01 8.195e+01 1.464e+01 0.91 0.09 0.00
80272 1 8.942e+01 8.344e+01 1.592e+01 0.91 0.09 0.00
80273 1 9.127e+01 8.218e+01 1.475e+01 0.92 0.08 0.00
80274 1 9.300e+01 8.333e+01 1.601e+01 0.91 0.09 0.00
80275 2 9.478e+01 8.212e+01 1.474e+01 0.91 0.09 0.00
80276 1 9.663e+01 8.332e+01 1.595e+01 0.91 0.09 0.00
80277 1 9.837e+01 8.203e+01 1.474e+01 0.91 0.09 0.00
80411 1 8.774e+01 8.458e+01 1.469e+01 0.93 0.07 0.00
80413 1 9.124e+01 8.455e+01 1.462e+01 0.92 0.08 0.00
80415 1 9.480e+01 8.454e+01 1.463e+01 0.92 0.08 0.00
80417 1 9.846e+01 8.444e+01 1.465e+01 0.91 0.09 0.00
80422 1 1.073e+02 8.586e+01 1.593e+01 0.91 0.09 0.00
80424 1 1.107e+02 8.580e+01 1.586e+01 0.92 0.08 0.00
80426 1 1.143e+02 8.579e+01 1.587e+01 0.91 0.09 0.00
80428 1 1.179e+02 8.596e+01 1.581e+01 0.90 0.10 0.00
80430 1 1.214e+02 8.579e+01 1.582e+01 0.90 0.10 0.00
80562 1 1.072e+02 8.847e+01 1.601e+01 0.92 0.08 0.00
80563 1 1.090e+02 8.704e+01 1.473e+01 0.92 0.08 0.00
80564 1 1.108e+02 8.844e+01 1.594e+01 0.92 0.08 0.00
80565 1 1.126e+02 8.709e+01 1.464e+01 0.91 0.09 0.00
80566 1 1.143e+02 8.833e+01 1.600e+01 0.91 0.09 0.00
80567 2 1.160e+02 8.711e+01 1.463e+01 0.91 0.09 0.00
80568 1 1.179e+02 8.844e+01 1.585e+01 0.90 0.10 0.00
80569 1 1.198e+02 8.710e+01 1.461e+01 0.90 0.10 0.00
80570 1 1.215e+02 8.846e+01 1.577e+01 0.92 0.08 0.00
80710 1 1.215e+02 9.107e+01 1.551e+01 0.92 0.08 0.00
80715 1 1.305e+02 8.952e+01 1.428e+01 0.91 0.09 0.00
80733 1 1.627e+02 8.977e+01 1.481e+01 0.91 0.09 0.00
80735 1 1.663e+02 8.963e+01 1.472e+01 0.91 0.09 0.00
80749 1 1.911e+02 8.966e+01 1.476e+01 0.91 0.09 0.00
80850 2 1.215e+02 9.355e+01 1.545e+01 0.91 0.09 0.00
80969 2 8.415e+01 9.446e+01 1.464e+01 0.92 0.08 0.00
80970 1 8.596e+01 9.579e+01 1.574e+01 0.92 0.08 0.00
80971 1 8.766e+01 9.444e+01 1.466e+01 0.92 0.08 0.00
80972 1 8.946e+01 9.573e+01 1.586e+01 0.92 0.08 0.00
81108 1 8.239e+01 9.827e+01 1.596e+01 0.91 0.09 0.00
81258 1 1.000e+02 1.008e+02 1.582e+01 0.90 0.10 0.00
81259 2 1.018e+02 9.969e+01 1.453e+01 0.91 0.09 0.00
81260 1 1.035e+02 1.010e+02 1.587e+01 0.90 0.10 0.00
81261 1 1.053e+02 9.977e+01 1.450e+01 0.91 0.09 0.00
81262 1 1.071e+02 1.010e+02 1.565e+01 0.90 0.10 0.00
81263 1 1.088e+02 9.967e+01 1.438e+01 0.91 0.09 0.00
81264 1 1.107e+02 1.011e+02 1.552e+01 0.91 0.09 0.00
81265 1 1.125e+02 9.975e+01 1.432e+01 0.92 0.08 0.00
81266 1 1.143e+02 1.009e+02 1.540e+01 0.90 0.10 0.00
81267 1 1.161e+02 9.967e+01 1.421e+01 0.91 0.09 0.00
81268 2 1.180e+02 1.010e+02 1.536e+01 0.90 0.10 0.00
81399 1 1.018e+02 1.021e+02 1.461e+01 0.91 0.09 0.00
81401 1 1.053e+02 1.022e+02 1.450e+01 0.91 0.09 0.00
81403 1 1.089e+02 1.022e+02 1.427e+01 0.91 0.09 0.00
81405 2 1.125e+02 1.022e+02 1.420e+01 0.91 0.09 0.00
81407 1 1.161e+02 1.023e+02 1.405e+01 0.90 0.10 0.00
81411 1 1.233e+02 1.021e+02 1.414e+01 0.92 0.08 0.00
81670 1 8.580e+01 1.083e+02 1.589e+01 0.90 0.10 0.00
81672 1 8.946e+01 1.085e+02 1.590e+01 0.91 0.09 0.00
81674 1 9.284e+01 1.084e+02 1.580e+01 0.92 0.08 0.00
81676 1 9.649e+01 1.084e+02 1.566e+01 0.92 0.08 0.00
81678 1 9.993e+01 1.085e+02 1.560e+01 0.91 0.09 0.00
81809 1 8.403e+01 1.096e+02 1.466e+01 0.90 0.10 0.00
81810 1 8.600e+01 1.108e+02 1.585e+01 0.91 0.09 0.00
81811 1 8.756e+01 1.095e+02 1.462e+01 0.91 0.09 0.00
81812 1 8.938e+01 1.109e+02 1.574e+01 0.91 0.09 0.00
81813 1 9.115e+01 1.098e+02 1.459e+01 0.90 0.10 0.00
81814 1 9.293e+01 1.110e+02 1.580e+01 0.91 0.09 0.00
81815 1 9.461e+01 1.096e+02 1.443e+01 0.91 0.09 0.00
81816 1 9.636e+01 1.109e+02 1.570e+01 0.92 0.08 0.00
81817 1 9.822e+01 1.097e+02 1.436e+01 0.92 0.08 0.00
81818 2 1.000e+02 1.109e+02 1.551e+01 0.91 0.09 0.00
81819 1 1.018e+02 1.098e+02 1.430e+01 0.91 0.09 0.00
81966 1 1.145e+02 1.135e+02 1.534e+01 0.92 0.08 0.00
81968 1 1.180e+02 1.135e+02 1.539e+01 0.91 0.09 0.00
81969 1 1.197e+02 1.122e+02 1.419e+01 0.91 0.09 0.00
81970 1 1.217e+02 1.134e+02 1.531e+01 0.92 0.08 0.00
82105 1 1.125e+02 1.146e+02 1.419e+01 0.91 0.09 0.00
82106 1 1.144e+02 1.161e+02 1.534e+01 0.91 0.09 0.00
82107 1 1.161e+02 1.148e+02 1.413e+01 0.91 0.09 0.00
82108 1 1.181e+02 1.160e+02 1.526e+01 0.91 0.09 0.00
82109 1 1.199e+02 1.146e+02 1.414e+01 0.91 0.09 0.00
82110 1 1.217e+02 1.159e+02 1.524e+01 0.90 0.10 0.00
82228 1 8.240e+01 1.184e+02 1.583e+01 0.89 0.11 0.00
82229 1 8.425e+01 1.172e+02 1.469e+01 0.91 0.09 0.00
82230 1 8.590e+01 1.186e+02 1.589e+01 0.91 0.09 0.00
82231 1 8.762e+01 1.173e+02 1.460e+01 0.90 0.10 0.00
82251 2 1.233e+02 1.172e+02 1.415e+01 0.92 0.08 0.00
82368 1 8.242e+01 1.209e+02 1.592e+01 0.91 0.09 0.00
82369 2 8.419e+01 1.198e+02 1.467e+01 0.90 0.10 0.00
82370 1 8.596e+01 1.210e+02 1.598e+01 0.91 0.09 0.00
82519 1 1.017e+02 1.222e+02 1.425e+01 0.91 0.09 0.00
82520 1 1.034e+02 1.235e+02 1.558e+01 0.92 0.08 0.00
82521 2 1.053e+02 1.223e+02 1.430e+01 0.91 0.09 0.00
82522 1 1.072e+02 1.234e+02 1.541e+01 0.92 0.08 0.00
82523 1 1.089e+02 1.222e+02 1.432e+01 0.91 0.09 0.00
82524 1 1.108e+02 1.234e+02 1.534e+01 0.90 0.10 0.00
82525 1 1.127e+02 1.222e+02 1.426e+01 0.90 0.10 0.00
82526 2 1.145e+02 1.236e+02 1.551e+01 0.91 0.09 0.00
82527 1 1.162e+02 1.223e+02 1.414e+01 0.90 0.10 0.00
82528 2 1.180e+02 1.235e+02 1.539e+01 0.90 0.10 0.00
82529 1 1.198e+02 1.222e+02 1.422e+01 0.90 0.10 0.00
82530 1 1.216e+02 1.235e+02 1.537e+01 0.91 0.09 0.00
82659 1 1.017e+02 1.248e+02 1.446e+01 0.92 0.08 0.00
82661 1 1.053e+02 1.247e+02 1.437e+01 0.90 0.10 0.00
82663 1 1.089e+02 1.248e+02 1.430e+01 0.91 0.09 0.00
82665 1 1.126e+02 1.248e+02 1.413e+01 0.91 0.09 0.00
82667 1 1.162e+02 1.247e+02 1.424e+01 0.90 0.10 0.00
82669 1 1.198e+02 1.247e+02 1.426e+01 0.90 0.10 0.00
82932 1 8.948e+01 1.310e+02 1.589e+01 0.90 0.10 0.00
82934 1 9.292e+01 1.310e+02 1.607e+01 0.90 0.10 0.00
82936 1 9.655e+01 1.309e+02 1.600e+01 0.90 0.10 0.00
82938 1 1.001e+02 1.310e+02 1.593e+01 0.91 0.09 0.00
82940 1 1.037e+02 1.309e+02 1.574e+01 0.91 0.09 0.00
82942 1 1.072e+02 1.310e+02 1.578e+01 0.90 0.10 0.00
83072 1 8.942e+01 1.336e+02 1.588e+01 0.90 0.10 0.00
83073 1 9.121e+01 1.324e+02 1.473e+01 0.90 0.10 0.00
83074 1 9.318e+01 1.336e+02 1.592e+01 0.90 0.10 0.00
83075 1 9.486e+01 1.323e+02 1.475e+01 0.90 0.10 0.00
83076 1 9.656e+01 1.335e+02 1.592e+01 0.90 0.10 0.00
83077 1 9.826e+01 1.323e+02 1.463e+01 0.91 0.09 0.00
83078 1 1.001e+02 1.335e+02 1.593e+01 0.91 0.09 0.00
83079 1 1.019e+02 1.322e+02 1.461e+01 0.92 0.08 0.00
83080 1 1.036e+02 1.335e+02 1.577e+01 0.91 0.09 0.00
83081 1 1.055e+02 1.322e+02 1.450e+01 0.90 0.10 0.00
83082 1 1.072e+02 1.335e+02 1.588e+01 0.90 0.10 0.00
83091 1 1.233e+02 1.323e+02 1.420e+01 0.90 0.10 0.00
84071 1 1.234e+02 1.497e+02 1.475e+01 0.92 0.08 0.00
84351 2 1.234e+02 1.547e+02 1.490e+01 0.91 0.09 0.00
84771 1 1.234e+02 1.623e+02 1.488e+01 0.90 0.10 0.00
85471 1 1.233e+02 1.748e+02 1.469e+01 0.91 0.09 0.00
85743 1 1.092e+02 1.798e+02 1.469e+01 0.89 0.11 0.00
85755 1 1.305e+02 1.797e+02 1.475e+01 0.91 0.09 0.00
85773 1 1.624e+02 1.797e+02 1.474e+01 0.91 0.09 0.00
87991 1 1.233e+02 2.198e+02 1.488e+01 0.91 0.09 0.00
88259 2 1.021e+02 -4.292e-01 1.733e+01 0.92 0.08 0.00
88270 1 1.217e+02 9.383e-01 1.851e+01 0.92 0.08 0.00
88283 1 1.447e+02 -4.067e-01 1.730e+01 0.91 0.09 0.00
88410 2 1.217e+02 3.420e+00 1.842e+01 0.93 0.07 0.00