ITEM: TIMESTEP
0
ITEM: NUMBER OF ATOMS
1000
ITEM: BOX BOUNDS xy xz yz pp pp pp
                     -8.09219691203268e-01 1.35329219691202e+02 0.00000000000000e+00
-8.09219691203268e-01	1.35329219691202e+02	0.00000000000000e+00
-8.09219691203268e-01	1.35329219691202e+02	0.00000000000000e+00
ITEM: ATOMS id type x y z p1 p2 p3
1 2 -5.781e-01 -5.574e-01 -3.815e-01 0.33 0.34 0.33
2 1 1.149e+00 1.229e+00 -3.388e-01 0.33 0.34 0.33
3 1 1.285e+00 -3.871e-01 1.305e+00 0.33 0.34 0.33
4 2 -5.547e-01 1.313e+00 1.459e+00 0.33 0.34 0.33
5 2 3.121e+00 -4.629e-01 -1.656e-01 0.33 0.34 0.33
6 2 4.999e+00 1.256e+00 -5.000e-01 0.33 0.34 0.33
7 1 5.025e+00 -4.172e-01 1.421e+00 0.33 0.34 0.33
8 3 3.219e+00 1.330e+00 1.351e+00 0.33 0.34 0.33
9 1 6.981e+00 -6.059e-01 -4.764e-01 0.33 0.33 0.34
10 2 8.591e+00 1.236e+00 -5.794e-01 0.33 0.34 0.33
11 2 8.696e+00 -5.662e-01 1.213e+00 0.33 0.33 0.34
12 2 6.886e+00 1.254e+00 1.154e+00 0.33 0.34 0.33
13 3 1.034e+01 -5.964e-01 -3.444e-01 0.33 0.33 0.34
14 2 1.205e+01 1.286e+00 -3.927e-01 0.33 0.33 0.34
15 3 1.208e+01 -5.621e-01 1.519e+00 0.33 0.33 0.34
16 3 1.042e+01 1.232e+00 1.355e+00 0.33 0.33 0.34
17 2 1.381e+01 -5.759e-01 -1.222e-01 0.33 0.33 0.34
18 2 1.568e+01 1.296e+00 -5.445e-01 0.33 0.34 0.34
19 3 1.576e+01 -5.349e-01 1.322e+00 0.32 0.34 0.34
20 1 1.403e+01 1.216e+00 1.460e+00 0.32 0.34 0.34
21 3 1.751e+01 -6.786e-01 -6.351e-01 0.32 0.34 0.34
22 2 1.925e+01 1.324e+00 -4.009e-01 0.33 0.33 0.34
23 3 1.923e+01 -5.557e-01 1.333e+00 0.32 0.34 0.34
24 1 1.750e+01 1.355e+00 1.293e+00 0.32 0.34 0.34
25 1 2.125e+01 -3.353e-01 -5.249e-01 0.32 0.34 0.34
26 1 2.299e+01 1.319e+00 -4.892e-01 0.33 0.33 0.34
27 3 2.291e+01 -5.701e-01 1.333e+00 0.32 0.34 0.34
28 1 2.103e+01 1.279e+00 1.298e+00 0.32 0.33 0.35
29 3 2.479e+01 -4.984e-01 -2.649e-01 0.32 0.34 0.34
30 1 2.631e+01 1.444e+00 -3.661e-01 0.33 0.34 0.34
31 2 2.642e+01 -4.287e-01 1.346e+00 0.32 0.34 0.34
32 2 2.465e+01 1.144e+00 1.328e+00 0.32 0.34 0.34
33 1 2.816e+01 -3.789e-01 -7.385e-01 0.33 0.33 0.34
34 1 2.986e+01 1.353e+00 -3.872e-01 0.33 0.33 0.34
35 1 2.990e+01 -4.162e-01 1.114e+00 0.33 0.34 0.34
36 2 2.800e+01 1.289e+00 1.229e+00 0.33 0.34 0.34
37 2 3.188e+01 -3.114e-01 -3.496e-01 0.33 0.33 0.34
38 2 3.338e+01 1.502e+00 -3.938e-01 0.33 0.33 0.34
39 2 3.336e+01 -1.791e-01 1.435e+00 0.33 0.33 0.34
40 2 3.164e+01 1.265e+00 1.488e+00 0.33 0.33 0.34
41 2 3.514e+01 -4.421e-01 -4.618e-01 0.33 0.33 0.34
42 3 3.701e+01 1.327e+00 -5.161e-01 0.32 0.33 0.35
43 3 3.703e+01 -2.983e-01 1.235e+00 0.33 0.33 0.35
44 3 3.528e+01 1.540e+00 1.346e+00 0.33 0.33 0.35
45 1 3.905e+01 -3.362e-01 -6.815e-01 0.32 0.33 0.35
46 2 4.076e+01 1.489e+00 -5.228e-01 0.32 0.32 0.35
47 1 4.083e+01 -3.721e-01 1.166e+00 0.33 0.32 0.35
48 3 3.891e+01 1.603e+00 1.186e+00 0.32 0.32 0.35
49 3 4.241e+01 -1.257e-01 -4.745e-01 0.32 0.33 0.35
50 3 4.454e+01 1.329e+00 -6.176e-01 0.32 0.32 0.36
51 2 4.428e+01 -5.386e-01 1.150e+00 0.32 0.32 0.36
52 1 4.258e+01 1.440e+00 1.240e+00 0.33 0.32 0.36
53 3 4.613e+01 -4.541e-01 -3.309e-01 0.32 0.32 0.36
54 2 4.772e+01 1.510e+00 -4.025e-01 0.33 0.32 0.35
55 1 4.781e+01 -4.784e-01 1.329e+00 0.32 0.32 0.35
56 2 4.608e+01 1.453e+00 1.506e+00 0.33 0.32 0.35
57 3 4.969e+01 -2.020e-01 -5.840e-01 0.32 0.32 0.35
58 1 5.145e+01 1.384e+00 -4.539e-01 0.32 0.33 0.35
59 1 5.140e+01 -4.717e-01 1.228e+00 0.32 0.33 0.35
60 3 4.954e+01 1.387e+00 1.319e+00 0.32 0.32 0.36
61 2 5.314e+01 -5.097e-01 -5.179e-01 0.32 0.33 0.35
62 2 5.494e+01 1.318e+00 -5.524e-01 0.32 0.33 0.34
63 2 5.515e+01 -2.602e-01 1.200e+00 0.32 0.33 0.35
64 1 5.316e+01 1.412e+00 1.331e+00 0.32 0.33 0.35
65 2 5.679e+01 -4.690e-01 -5.067e-01 0.32 0.34 0.34
66 2 5.865e+01 1.476e+00 -5.138e-01 0.32 0.34 0.34
67 3 5.848e+01 -2.149e-01 1.239e+00 0.33 0.33 0.34
68 3 5.664e+01 1.417e+00 1.127e+00 0.32 0.33 0.35
69 1 6.039e+01 -3.361e-01 -6.091e-01 0.33 0.33 0.34
70 3 6.241e+01 1.292e+00 -6.104e-01 0.33 0.34 0.33
71 3 6.222e+01 -5.537e-01 1.348e+00 0.34 0.33 0.33
72 3 6.095e+01 1.387e+00 1.353e+00 0.33 0.33 0.34
73 3 6.410e+01 -5.680e-01 -5.369e-01 0.33 0.34 0.33
74 3 6.588e+01 1.124e+00 -5.950e-01 0.33 0.34 0.32
75 2 6.575e+01 -7.779e-01 1.306e+00 0.33 0.34 0.32
76 3 6.406e+01 1.352e+00 1.217e+00 0.33 0.34 0.33
77 2 6.751e+01 -5.464e-01 -5.409e-01 0.33 0.34 0.33
78 2 6.934e+01 1.318e+00 -3.846e-01 0.33 0.34 0.33
79 1 6.939e+01 -4.659e-01 1.446e+00 0.33 0.34 0.33
80 3 6.742e+01 1.282e+00 1.297e+00 0.33 0.34 0.32
81 2 7.142e+01 -3.853e-01 -3.150e-01 0.33 0.34 0.33
82 2 7.323e+01 1.415e+00 -3.725e-01 0.33 0.35 0.33
83 2 7.307e+01 -5.987e-01 1.236e+00 0.33 0.35 0.32
84 3 7.135e+01 1.265e+00 1.264e+00 0.33 0.34 0.32
85 1 7.474e+01 -5.275e-01 -7.807e-01 0.33 0.35 0.32
86 3 7.649e+01 1.554e+00 -5.265e-01 0.33 0.35 0.32
87 1 7.639e+01 -4.142e-01 1.220e+00 0.33 0.35 0.32
88 3 7.459e+01 1.504e+00 1.393e+00 0.33 0.35 0.32
89 2 7.825e+01 -4.894e-01 -6.541e-01 0.33 0.35 0.32
90 1 8.020e+01 1.327e+00 -4.952e-01 0.33 0.35 0.32
91 1 8.028e+01 -4.009e-01 1.012e+00 0.33 0.35 0.32
92 1 7.820e+01 1.369e+00 1.125e+00 0.32 0.36 0.32
93 3 8.213e+01 -5.204e-01 -5.924e-01 0.33 0.35 0.31
94 3 8.375e+01 1.488e+00 -6.262e-01 0.33 0.36 0.31
95 2 8.371e+01 -2.737e-01 1.208e+00 0.33 0.36 0.31
96 2 8.192e+01 1.518e+00 1.258e+00 0.33 0.36 0.31
97 2 8.553e+01 -4.381e-01 -4.951e-01 0.33 0.35 0.32
98 1 8.734e+01 1.386e+00 -6.266e-01 0.33 0.36 0.32
99 2 8.728e+01 -3.883e-01 1.255e+00 0.33 0.35 0.32
100 3 8.546e+01 1.572e+00 1.228e+00 0.33 0.36 0.32
101 3 8.928e+01 -7.552e-01 -5.278e-01 0.33 0.35 0.32
102 1 9.086e+01 1.284e+00 -5.002e-01 0.33 0.35 0.32
103 2 9.088e+01 -4.815e-01 1.411e+00 0.33 0.34 0.32
104 1 8.895e+01 1.351e+00 1.166e+00 0.33 0.35 0.32
105 1 9.258e+01 -4.180e-01 -4.629e-01 0.33 0.35 0.33
106 3 9.446e+01 1.403e+00 -6.196e-01 0.32 0.34 0.33
107 2 9.448e+01 -2.410e-01 1.154e+00 0.33 0.34 0.33
108 1 9.264e+01 1.483e+00 1.294e+00 0.32 0.35 0.33
109 2 9.624e+01 -2.888e-01 -5.972e-01 0.33 0.34 0.33
110 1 9.791e+01 1.404e+00 -6.109e-01 0.33 0.34 0.33
111 2 9.803e+01 -2.584e-01 1.462e+00 0.33 0.34 0.33
112 1 9.620e+01 1.513e+00 1.227e+00 0.33 0.35 0.33
113 1 9.989e+01 -3.964e-01 -4.933e-01 0.33 0.34 0.34
114 3 1.016e+02 1.220e+00 -3.689e-01 0.32 0.34 0.34
115 1 1.016e+02 -5.913e-01 1.548e+00 0.32 0.34 0.34
116 2 9.978e+01 1.269e+00 1.395e+00 0.33 0.34 0.33
117 2 1.035e+02 -4.049e-01 -4.783e-01 0.33 0.34 0.34
118 2 1.054e+02 1.461e+00 -5.277e-01 0.33 0.33 0.33
119 1 1.054e+02 -4.152e-01 1.239e+00 0.33 0.34 0.33
120 3 1.034e+02 1.402e+00 1.077e+00 0.33 0.34 0.33
121 3 1.071e+02 -3.944e-01 -5.433e-01 0.34 0.33 0.33
122 2 1.085e+02 1.222e+00 -3.778e-01 0.34 0.33 0.33
123 2 1.086e+02 -3.844e-01 1.499e+00 0.34 0.33 0.33
124 1 1.070e+02 1.489e+00 1.275e+00 0.34 0.33 0.33
125 1 1.105e+02 -4.738e-01 -5.444e-01 0.34 0.33 0.33
126 3 1.123e+02 1.479e+00 -4.230e-01 0.35 0.33 0.33
127 1 1.124e+02 -3.490e-01 1.062e+00 0.35 0.32 0.33
128 1 1.105e+02 1.177e+00 1.106e+00 0.35 0.33 0.32
129 1 1.142e+02 -5.992e-01 -5.338e-01 0.34 0.32 0.33
130 1 1.160e+02 1.311e+00 -3.941e-01 0.35 0.32 0.33
131 1 1.159e+02 -6.339e-01 1.330e+00 0.34 0.33 0.33
132 2 1.142e+02 1.202e+00 1.546e+00 0.34 0.32 0.33
133 3 1.176e+02 -4.981e-01 -3.367e-01 0.34 0.33 0.33
134 2 1.194e+02 1.299e+00 -3.100e-01 0.34 0.33 0.33
135 1 1.193e+02 -5.720e-01 1.586e+00 0.35 0.32 0.33
136 1 1.177e+02 1.272e+00 1.396e+00 0.35 0.32 0.33
137 1 1.213e+02 -4.516e-01 -3.720e-01 0.35 0.33 0.33
138 2 1.232e+02 1.287e+00 -2.218e-01 0.34 0.33 0.33
139 3 1.231e+02 -4.261e-01 1.493e+00 0.35 0.33 0.33
140 2 1.212e+02 1.276e+00 1.501e+00 0.35 0.33 0.33
141 1 1.249e+02 -3.562e-01 -3.890e-01 0.34 0.34 0.33
142 1 1.267e+02 1.399e+00 -2.197e-01 0.33 0.34 0.33
143 1 1.266e+02 -5.116e-01 1.410e+00 0.33 0.33 0.33
144 2 1.249e+02 1.507e+00 1.550e+00 0.34 0.33 0.33
145 3 1.283e+02 -4.795e-01 -4.183e-01 0.33 0.33 0.34
146 2 1.303e+02 1.411e+00 -5.836e-01 0.33 0.33 0.33
147 2 1.301e+02 -3.792e-01 1.355e+00 0.33 0.33 0.34
148 3 1.285e+02 1.459e+00 1.353e+00 0.33 0.34 0.33
149 1 1.321e+02 -3.074e-01 -4.407e-01 0.33 0.34 0.33
150 1 1.339e+02 1.379e+00 -3.928e-01 0.33 0.34 0.33
151 3 1.340e+02 -6.036e-01 1.473e+00 0.33 0.34 0.33
152 2 1.322e+02 1.346e+00 1.384e+00 0.33 0.34 0.34
153 1 -5.385e-01 3.198e+00 -5.343e-01 0.33 0.34 0.33
154 2 1.332e+00 4.928e+00 -5.040e-01 0.33 0.34 0.33
155 1 1.277e+00 3.119e+00 1.148e+00 0.33 0.34 0.33
156 2 -2.051e-01 5.179e+00 1.276e+00 0.33 0.34 0.33
157 1 3.078e+00 2.978e+00 -4.746e-01 0.33 0.34 0.33
158 3 4.977e+00 4.893e+00 -7.324e-01 0.33 0.34 0.33
159 1 4.986e+00 3.170e+00 1.238e+00 0.33 0.34 0.33
160 3 3.215e+00 4.954e+00 1.279e+00 0.34 0.34 0.33
161 2 6.659e+00 3.447e+00 -3.751e-01 0.33 0.34 0.33
162 2 8.838e+00 4.803e+00 -5.750e-01 0.33 0.33 0.33
163 3 8.509e+00 3.344e+00 1.272e+00 0.33 0.33 0.34
164 3 6.891e+00 5.019e+00 1.285e+00 0.33 0.34 0.33
165 1 1.046e+01 2.981e+00 -3.074e-01 0.33 0.34 0.33
166 1 1.239e+01 4.827e+00 -5.492e-01 0.33 0.34 0.33
167 3 1.221e+01 3.072e+00 1.499e+00 0.33 0.34 0.33
168 2 1.051e+01 4.899e+00 1.403e+00 0.33 0.33 0.34
169 3 1.397e+01 2.961e+00 -3.658e-01 0.33 0.34 0.34
170 1 1.586e+01 4.732e+00 -5.704e-01 0.33 0.33 0.34
171 2 1.570e+01 3.021e+00 1.406e+00 0.33 0.33 0.34
172 3 1.404e+01 4.934e+00 1.383e+00 0.33 0.34 0.33
173 3 1.750e+01 3.024e+00 -6.472e-01 0.33 0.34 0.34
174 3 1.930e+01 4.726e+00 -3.138e-01 0.33 0.33 0.34
175 3 1.917e+01 3.085e+00 1.372e+00 0.33 0.33 0.34
176 1 1.732e+01 4.891e+00 1.361e+00 0.33 0.33 0.34
177 1 2.109e+01 3.066e+00 -2.718e-01 0.32 0.33 0.34
178 1 2.268e+01 5.023e+00 -4.716e-01 0.33 0.33 0.34
179 1 2.286e+01 3.244e+00 1.296e+00 0.33 0.33 0.34
180 3 2.096e+01 5.004e+00 1.466e+00 0.33 0.33 0.34
181 1 2.463e+01 3.154e+00 -3.715e-01 0.33 0.33 0.34
182 1 2.632e+01 4.737e+00 -3.252e-01 0.33 0.33 0.34
183 1 2.650e+01 3.133e+00 1.489e+00 0.33 0.33 0.34
184 1 2.467e+01 5.085e+00 1.345e+00 0.33 0.33 0.34
185 1 2.815e+01 3.100e+00 -3.139e-01 0.33 0.34 0.34
186 3 2.987e+01 4.761e+00 -2.895e-01 0.33 0.34 0.34
187 2 2.977e+01 3.294e+00 1.431e+00 0.33 0.33 0.34
188 3 2.827e+01 5.004e+00 1.398e+00 0.33 0.33 0.33
189 2 3.171e+01 3.279e+00 -2.788e-01 0.33 0.34 0.34
190 3 3.352e+01 4.994e+00 -5.110e-01 0.33 0.33 0.34
191 3 3.370e+01 3.161e+00 1.452e+00 0.33 0.33 0.34
192 3 3.171e+01 5.060e+00 1.334e+00 0.33 0.33 0.34
193 2 3.514e+01 3.167e+00 -4.563e-01 0.32 0.33 0.34
194 2 3.695e+01 5.161e+00 -2.304e-01 0.33 0.33 0.35
195 2 3.720e+01 3.146e+00 1.161e+00 0.32 0.33 0.35
196 1 3.516e+01 5.035e+00 1.352e+00 0.33 0.33 0.34
197 1 3.876e+01 3.141e+00 -5.168e-01 0.32 0.33 0.35
198 2 4.072e+01 4.903e+00 -4.631e-01 0.32 0.32 0.36
199 3 4.076e+01 3.315e+00 1.117e+00 0.33 0.32 0.35
200 3 3.879e+01 4.863e+00 1.313e+00 0.33 0.32 0.35
201 1 4.253e+01 3.240e+00 -4.394e-01 0.32 0.32 0.36
202 1 4.435e+01 4.952e+00 -6.111e-01 0.32 0.32 0.36
203 1 4.459e+01 3.162e+00 1.175e+00 0.33 0.31 0.36
204 1 4.239e+01 5.113e+00 1.170e+00 0.33 0.32 0.35
205 2 4.611e+01 3.310e+00 -5.242e-01 0.32 0.32 0.35
206 3 4.773e+01 4.821e+00 -5.951e-01 0.33 0.32 0.36
207 2 4.797e+01 3.183e+00 1.391e+00 0.33 0.32 0.36
208 1 4.618e+01 4.992e+00 1.333e+00 0.33 0.32 0.35
209 2 4.967e+01 3.130e+00 -4.569e-01 0.32 0.32 0.35
210 1 5.144e+01 5.013e+00 -4.989e-01 0.32 0.32 0.35
211 2 5.142e+01 3.166e+00 1.282e+00 0.32 0.33 0.35
212 1 4.951e+01 4.988e+00 1.213e+00 0.33 0.32 0.35
213 2 5.323e+01 3.235e+00 -5.230e-01 0.32 0.33 0.35
214 1 5.498e+01 4.863e+00 -4.568e-01 0.32 0.33 0.35
215 1 5.511e+01 3.117e+00 1.289e+00 0.32 0.33 0.35
216 1 5.338e+01 4.965e+00 1.372e+00 0.33 0.32 0.35
217 1 5.690e+01 3.175e+00 -4.008e-01 0.32 0.34 0.35
218 2 5.861e+01 4.933e+00 -4.348e-01 0.32 0.34 0.35
219 1 5.866e+01 3.189e+00 1.458e+00 0.32 0.33 0.35
220 2 5.683e+01 5.025e+00 1.266e+00 0.32 0.33 0.34
221 3 6.043e+01 3.201e+00 -1.046e-01 0.32 0.34 0.34
222 3 6.224e+01 4.884e+00 -3.163e-01 0.33 0.34 0.33
223 3 6.252e+01 3.277e+00 1.401e+00 0.33 0.34 0.33
224 1 6.042e+01 5.019e+00 1.529e+00 0.33 0.34 0.34
225 3 6.419e+01 3.217e+00 -5.348e-01 0.33 0.34 0.33
226 2 6.599e+01 4.846e+00 -3.655e-01 0.33 0.34 0.33
227 3 6.588e+01 3.263e+00 1.281e+00 0.34 0.34 0.33
228 1 6.419e+01 4.973e+00 1.365e+00 0.33 0.34 0.33
229 3 6.781e+01 3.031e+00 -6.404e-01 0.33 0.34 0.33
230 1 6.945e+01 4.947e+00 -4.120e-01 0.33 0.35 0.33
231 3 6.954e+01 3.003e+00 1.194e+00 0.33 0.34 0.33
232 3 6.788e+01 5.210e+00 1.345e+00 0.33 0.34 0.33
233 2 7.123e+01 3.078e+00 -5.295e-01 0.32 0.35 0.33
234 2 7.294e+01 4.884e+00 -4.132e-01 0.32 0.35 0.33
235 2 7.294e+01 3.190e+00 1.331e+00 0.33 0.35 0.33
236 1 7.128e+01 4.851e+00 1.392e+00 0.33 0.35 0.32
237 2 7.487e+01 3.267e+00 -5.659e-01 0.32 0.35 0.33
238 3 7.639e+01 5.032e+00 -2.322e-01 0.32 0.35 0.32
239 3 7.636e+01 3.081e+00 1.217e+00 0.32 0.36 0.32
240 3 7.456e+01 4.915e+00 1.239e+00 0.33 0.35 0.32
241 1 7.831e+01 3.324e+00 -5.366e-01 0.32 0.36 0.32
242 1 8.006e+01 4.904e+00 -5.955e-01 0.32 0.36 0.32
243 2 7.991e+01 3.263e+00 1.255e+00 0.33 0.36 0.32
244 3 7.837e+01 5.253e+00 1.320e+00 0.32 0.36 0.32
245 1 8.205e+01 3.178e+00 -6.319e-01 0.32 0.36 0.32
246 3 8.366e+01 4.967e+00 -5.346e-01 0.32 0.36 0.32
247 2 8.373e+01 3.272e+00 1.244e+00 0.33 0.36 0.32
248 3 8.173e+01 5.111e+00 1.241e+00 0.32 0.36 0.32
249 3 8.556e+01 3.154e+00 -5.783e-01 0.32 0.36 0.32
250 1 8.738e+01 5.017e+00 -4.465e-01 0.32 0.36 0.32
251 2 8.710e+01 3.058e+00 1.256e+00 0.32 0.35 0.32
252 2 8.553e+01 4.998e+00 1.288e+00 0.31 0.36 0.33
253 2 8.923e+01 3.123e+00 -6.601e-01 0.32 0.36 0.32
254 3 9.072e+01 4.896e+00 -6.408e-01 0.33 0.36 0.32
255 1 9.077e+01 3.147e+00 1.098e+00 0.32 0.36 0.32
256 2 8.906e+01 5.032e+00 1.384e+00 0.32 0.36 0.32
257 3 9.278e+01 3.149e+00 -5.313e-01 0.33 0.35 0.32
258 2 9.444e+01 5.047e+00 -5.256e-01 0.32 0.35 0.33
259 3 9.447e+01 3.270e+00 1.233e+00 0.33 0.35 0.32
260 3 9.239e+01 4.962e+00 1.081e+00 0.32 0.35 0.32
261 1 9.610e+01 3.146e+00 -5.321e-01 0.32 0.35 0.33
262 2 9.795e+01 5.141e+00 -3.586e-01 0.32 0.34 0.33
263 1 9.804e+01 3.286e+00 1.224e+00 0.32 0.35 0.33
264 1 9.626e+01 4.843e+00 1.433e+00 0.32 0.35 0.33
265 1 9.983e+01 3.162e+00 -4.432e-01 0.32 0.35 0.33
266 3 1.015e+02 4.835e+00 -6.365e-01 0.32 0.34 0.34
267 1 1.016e+02 2.932e+00 1.150e+00 0.32 0.34 0.34
268 3 9.976e+01 5.013e+00 1.285e+00 0.32 0.34 0.34
269 3 1.033e+02 3.309e+00 -5.626e-01 0.33 0.34 0.33
270 1 1.052e+02 4.868e+00 -7.222e-01 0.33 0.34 0.33
271 2 1.052e+02 3.328e+00 1.267e+00 0.33 0.34 0.33
272 1 1.033e+02 4.797e+00 1.234e+00 0.33 0.33 0.33
273 1 1.071e+02 3.257e+00 -7.399e-01 0.34 0.33 0.33
274 2 1.087e+02 5.052e+00 -7.151e-01 0.34 0.33 0.33
275 2 1.088e+02 3.286e+00 1.472e+00 0.35 0.33 0.33
276 3 1.070e+02 4.971e+00 1.105e+00 0.33 0.34 0.33
277 3 1.104e+02 3.131e+00 -3.794e-01 0.35 0.32 0.33
278 3 1.127e+02 5.019e+00 -3.375e-01 0.34 0.33 0.33
279 3 1.124e+02 3.048e+00 1.354e+00 0.35 0.32 0.33
280 3 1.106e+02 4.999e+00 1.125e+00 0.34 0.33 0.33
281 1 1.141e+02 3.153e+00 -4.327e-01 0.35 0.32 0.33
282 2 1.160e+02 4.676e+00 -3.854e-01 0.35 0.32 0.33
283 3 1.158e+02 3.149e+00 1.527e+00 0.34 0.32 0.34
284 2 1.143e+02 5.053e+00 1.375e+00 0.35 0.32 0.33
285 2 1.178e+02 3.207e+00 -2.754e-01 0.34 0.32 0.33
286 2 1.197e+02 4.805e+00 -3.297e-01 0.34 0.32 0.33
287 1 1.194e+02 3.300e+00 1.459e+00 0.35 0.32 0.33
288 2 1.176e+02 5.006e+00 1.479e+00 0.34 0.32 0.34
289 2 1.214e+02 2.995e+00 -1.563e-01 0.34 0.33 0.33
290 1 1.229e+02 4.909e+00 -3.432e-01 0.34 0.33 0.33
291 3 1.231e+02 3.024e+00 1.485e+00 0.35 0.33 0.33
292 2 1.211e+02 4.801e+00 1.553e+00 0.34 0.32 0.33
293 2 1.249e+02 3.170e+00 -4.199e-01 0.34 0.33 0.33
294 1 1.266e+02 4.947e+00 -4.584e-01 0.34 0.33 0.33
295 3 1.266e+02 3.070e+00 1.264e+00 0.34 0.34 0.33
296 1 1.247e+02 4.774e+00 1.502e+00 0.34 0.33 0.33
297 3 1.283e+02 3.002e+00 -4.675e-01 0.33 0.33 0.33
298 1 1.303e+02 5.110e+00 -4.397e-01 0.33 0.33 0.33
299 3 1.305e+02 3.072e+00 1.008e+00 0.33 0.34 0.34
300 1 1.285e+02 5.002e+00 1.320e+00 0.34 0.33 0.33
301 3 1.323e+02 3.117e+00 -5.075e-01 0.33 0.34 0.33
302 3 1.339e+02 5.158e+00 -3.820e-01 0.33 0.34 0.33
303 3 1.340e+02 3.373e+00 1.282e+00 0.33 0.33 0.33
304 3 1.320e+02 5.163e+00 1.381e+00 0.33 0.33 0.33
305 3 -3.655e-01 6.622e+00 -2.873e-01 0.33 0.34 0.33
306 3 1.512e+00 8.489e+00 -4.930e-01 0.34 0.33 0.33
307 2 1.561e+00 6.859e+00 1.247e+00 0.34 0.34 0.33
308 2 -3.237e-01 8.463e+00 1.379e+00 0.34 0.34 0.32
309 3 3.442e+00 6.595e+00 -5.404e-01 0.34 0.34 0.33
310 2 5.046e+00 8.334e+00 -2.979e-01 0.34 0.34 0.33
311 3 4.892e+00 6.668e+00 1.546e+00 0.34 0.34 0.33
312 3 3.153e+00 8.607e+00 1.396e+00 0.34 0.33 0.33
313 3 6.904e+00 6.400e+00 -5.506e-01 0.33 0.34 0.33
314 3 8.396e+00 8.421e+00 -5.475e-01 0.34 0.34 0.33
315 2 8.532e+00 6.565e+00 1.341e+00 0.34 0.34 0.33
316 2 6.709e+00 8.238e+00 1.417e+00 0.34 0.34 0.33
317 2 1.029e+01 6.821e+00 -3.035e-01 0.34 0.33 0.33
318 1 1.232e+01 8.525e+00 -3.960e-01 0.34 0.33 0.33
319 1 1.211e+01 6.582e+00 1.406e+00 0.33 0.34 0.33
320 3 1.047e+01 8.334e+00 1.423e+00 0.34 0.34 0.33
321 3 1.405e+01 6.737e+00 -5.927e-01 0.33 0.34 0.33
322 1 1.588e+01 8.436e+00 -3.874e-01 0.34 0.33 0.33
323 1 1.563e+01 6.631e+00 1.339e+00 0.33 0.33 0.33
324 1 1.401e+01 8.385e+00 1.237e+00 0.34 0.33 0.33
325 1 1.758e+01 6.549e+00 -5.594e-01 0.33 0.33 0.34
326 3 1.923e+01 8.537e+00 -3.503e-01 0.33 0.33 0.34
327 2 1.921e+01 6.596e+00 1.469e+00 0.33 0.33 0.34
328 1 1.752e+01 8.452e+00 1.575e+00 0.33 0.33 0.33
329 1 2.086e+01 6.860e+00 -3.287e-01 0.34 0.33 0.33
330 1 2.275e+01 8.587e+00 -3.775e-01 0.34 0.33 0.33
331 2 2.266e+01 6.708e+00 1.302e+00 0.33 0.33 0.34
332 1 2.110e+01 8.631e+00 1.313e+00 0.34 0.33 0.33
333 1 2.447e+01 6.672e+00 -3.458e-01 0.33 0.33 0.34
334 2 2.627e+01 8.511e+00 -3.733e-01 0.33 0.33 0.34
335 2 2.632e+01 6.847e+00 1.276e+00 0.33 0.33 0.34
336 1 2.450e+01 8.599e+00 1.502e+00 0.33 0.33 0.34
337 3 2.813e+01 6.761e+00 -2.747e-01 0.33 0.33 0.34
338 1 3.008e+01 8.536e+00 -3.522e-01 0.33 0.33 0.34
339 2 2.987e+01 6.826e+00 1.206e+00 0.33 0.33 0.34
340 1 2.827e+01 8.687e+00 1.467e+00 0.33 0.33 0.34
341 2 3.184e+01 6.659e+00 -4.365e-01 0.33 0.33 0.34
342 2 3.368e+01 8.427e+00 -6.474e-01 0.33 0.33 0.34
343 3 3.360e+01 6.822e+00 1.346e+00 0.33 0.33 0.34
344 1 3.184e+01 8.563e+00 1.558e+00 0.33 0.33 0.34
345 3 3.535e+01 6.825e+00 -5.998e-01 0.33 0.33 0.34
346 3 3.727e+01 8.498e+00 -4.391e-01 0.33 0.33 0.35
347 3 3.710e+01 6.710e+00 1.544e+00 0.33 0.33 0.34
348 1 3.532e+01 8.437e+00 1.398e+00 0.33 0.33 0.34
349 3 3.896e+01 6.767e+00 -4.594e-01 0.33 0.32 0.35
350 2 4.062e+01 8.280e+00 -4.080e-01 0.33 0.32 0.35
351 1 4.056e+01 6.658e+00 1.484e+00 0.33 0.32 0.35
352 2 3.882e+01 8.483e+00 1.445e+00 0.33 0.33 0.34
353 3 4.263e+01 6.721e+00 -5.937e-01 0.32 0.32 0.36
354 2 4.411e+01 8.523e+00 -6.702e-01 0.33 0.32 0.35
355 1 4.436e+01 6.732e+00 1.252e+00 0.33 0.32 0.35
356 2 4.262e+01 8.289e+00 1.217e+00 0.33 0.32 0.35
357 3 4.590e+01 6.691e+00 -6.647e-01 0.32 0.32 0.36
358 3 4.784e+01 8.743e+00 -6.213e-01 0.32 0.32 0.36
359 3 4.774e+01 6.885e+00 1.012e+00 0.33 0.32 0.35
360 2 4.621e+01 8.607e+00 1.109e+00 0.33 0.32 0.35
361 1 4.970e+01 6.822e+00 -5.874e-01 0.32 0.32 0.35
362 3 5.177e+01 8.500e+00 -2.422e-01 0.33 0.32 0.35
363 3 5.131e+01 6.758e+00 1.246e+00 0.33 0.32 0.35
364 1 4.963e+01 8.658e+00 1.349e+00 0.33 0.32 0.35
365 2 5.315e+01 6.742e+00 -4.198e-01 0.32 0.32 0.35
366 1 5.486e+01 8.542e+00 -3.154e-01 0.32 0.33 0.35
367 1 5.499e+01 6.774e+00 1.366e+00 0.32 0.33 0.35
368 3 5.330e+01 8.573e+00 1.445e+00 0.33 0.33 0.35
369 3 5.689e+01 6.662e+00 -4.828e-01 0.32 0.33 0.35
370 1 5.869e+01 8.518e+00 -5.581e-01 0.32 0.33 0.34
371 3 5.875e+01 6.755e+00 1.428e+00 0.32 0.34 0.34
372 2 5.701e+01 8.393e+00 1.198e+00 0.32 0.34 0.34
373 2 6.029e+01 6.757e+00 -2.561e-01 0.32 0.34 0.34
374 2 6.228e+01 8.466e+00 -4.938e-01 0.33 0.34 0.34
375 1 6.221e+01 6.818e+00 1.207e+00 0.33 0.34 0.34
376 3 6.048e+01 8.540e+00 1.273e+00 0.33 0.33 0.34
377 2 6.415e+01 6.661e+00 -5.330e-01 0.33 0.34 0.33
378 2 6.592e+01 8.593e+00 -3.214e-01 0.33 0.34 0.33
379 2 6.595e+01 6.880e+00 1.272e+00 0.33 0.34 0.33
380 1 6.395e+01 8.649e+00 1.339e+00 0.33 0.34 0.34
381 2 6.766e+01 6.726e+00 -3.309e-01 0.33 0.34 0.33
382 2 6.970e+01 8.453e+00 -5.064e-01 0.33 0.35 0.32
383 2 6.955e+01 6.812e+00 1.343e+00 0.33 0.34 0.32
384 3 6.765e+01 8.605e+00 1.268e+00 0.33 0.34 0.33
385 3 7.130e+01 6.738e+00 -1.380e-01 0.33 0.35 0.33
386 1 7.293e+01 8.532e+00 -4.092e-01 0.33 0.35 0.32
387 1 7.306e+01 6.695e+00 1.502e+00 0.32 0.35 0.32
388 3 7.119e+01 8.576e+00 1.388e+00 0.33 0.35 0.32
389 2 7.462e+01 6.758e+00 -3.184e-01 0.32 0.35 0.32
390 1 7.656e+01 8.444e+00 -4.608e-01 0.32 0.36 0.32
391 3 7.658e+01 6.911e+00 1.394e+00 0.32 0.36 0.32
392 2 7.469e+01 8.467e+00 1.470e+00 0.33 0.36 0.32
393 1 7.843e+01 6.772e+00 -4.521e-01 0.31 0.37 0.32
394 1 8.018e+01 8.463e+00 -6.218e-01 0.32 0.37 0.31
395 2 8.013e+01 6.720e+00 1.547e+00 0.32 0.36 0.32
396 2 7.843e+01 8.522e+00 1.310e+00 0.32 0.37 0.32
397 1 8.199e+01 6.772e+00 -5.330e-01 0.32 0.36 0.32
398 1 8.366e+01 8.470e+00 -6.162e-01 0.32 0.37 0.31
399 3 8.370e+01 6.708e+00 1.349e+00 0.32 0.36 0.32
400 1 8.190e+01 8.381e+00 1.388e+00 0.32 0.37 0.31
401 1 8.542e+01 6.656e+00 -4.798e-01 0.32 0.36 0.32
402 2 8.718e+01 8.573e+00 -5.583e-01 0.32 0.36 0.31
403 3 8.746e+01 6.955e+00 1.167e+00 0.32 0.36 0.32
404 1 8.550e+01 8.405e+00 1.328e+00 0.31 0.37 0.32
405 2 8.910e+01 6.891e+00 -3.762e-01 0.32 0.36 0.32
406 2 9.073e+01 8.660e+00 -3.717e-01 0.32 0.36 0.32
407 3 9.065e+01 6.834e+00 1.368e+00 0.32 0.36 0.32
408 3 8.899e+01 8.710e+00 1.404e+00 0.32 0.36 0.32
409 3 9.244e+01 6.894e+00 -5.549e-01 0.32 0.36 0.32
410 2 9.423e+01 8.448e+00 -4.921e-01 0.32 0.36 0.33
411 1 9.440e+01 6.857e+00 1.354e+00 0.32 0.35 0.33
412 3 9.241e+01 8.391e+00 1.277e+00 0.32 0.36 0.32
413 3 9.616e+01 6.647e+00 -5.111e-01 0.32 0.35 0.33
414 3 9.801e+01 8.519e+00 -3.714e-01 0.32 0.35 0.34
415 3 9.817e+01 6.703e+00 1.331e+00 0.32 0.35 0.33
416 1 9.623e+01 8.330e+00 1.417e+00 0.32 0.35 0.33
417 1 9.970e+01 6.811e+00 -5.270e-01 0.32 0.34 0.34
418 1 1.015e+02 8.628e+00 -5.502e-01 0.32 0.34 0.33
419 2 1.014e+02 6.772e+00 1.374e+00 0.33 0.34 0.33
420 2 9.964e+01 8.513e+00 1.269e+00 0.32 0.34 0.33
421 3 1.033e+02 6.590e+00 -5.079e-01 0.33 0.34 0.33
422 1 1.051e+02 8.549e+00 -5.857e-01 0.33 0.34 0.33
423 1 1.052e+02 6.619e+00 1.176e+00 0.33 0.34 0.33
424 1 1.033e+02 8.383e+00 1.413e+00 0.33 0.34 0.33
425 2 1.070e+02 6.729e+00 -4.356e-01 0.33 0.34 0.33
426 1 1.087e+02 8.668e+00 -3.875e-01 0.34 0.34 0.33
427 2 1.088e+02 6.766e+00 1.281e+00 0.34 0.34 0.33
428 1 1.068e+02 8.375e+00 1.297e+00 0.34 0.34 0.33
429 3 1.105e+02 7.046e+00 -3.686e-01 0.35 0.33 0.33
430 3 1.124e+02 8.607e+00 -4.647e-01 0.34 0.33 0.33
431 1 1.123e+02 6.820e+00 1.355e+00 0.34 0.33 0.33
432 1 1.106e+02 8.733e+00 1.474e+00 0.35 0.33 0.32
433 3 1.141e+02 6.814e+00 -2.137e-01 0.35 0.32 0.33
434 1 1.159e+02 8.387e+00 -3.262e-01 0.34 0.32 0.33
435 3 1.161e+02 6.854e+00 1.433e+00 0.35 0.32 0.33
436 2 1.141e+02 8.703e+00 1.377e+00 0.34 0.32 0.33
437 1 1.177e+02 6.539e+00 -4.549e-01 0.34 0.32 0.33
438 2 1.194e+02 8.434e+00 -2.795e-01 0.34 0.32 0.33
439 1 1.194e+02 6.414e+00 1.538e+00 0.35 0.32 0.33
440 2 1.177e+02 8.407e+00 1.413e+00 0.34 0.32 0.33
441 1 1.213e+02 6.706e+00 -2.665e-01 0.34 0.33 0.33
442 1 1.229e+02 8.463e+00 -2.810e-01 0.34 0.33 0.33
443 2 1.228e+02 6.753e+00 1.443e+00 0.34 0.33 0.33
444 2 1.212e+02 8.731e+00 1.359e+00 0.35 0.32 0.33
445 2 1.247e+02 6.695e+00 -3.642e-01 0.34 0.33 0.33
446 3 1.267e+02 8.536e+00 -3.463e-01 0.34 0.33 0.33
447 2 1.266e+02 6.764e+00 1.149e+00 0.34 0.33 0.33
448 2 1.247e+02 8.372e+00 1.289e+00 0.35 0.33 0.33
449 1 1.284e+02 6.832e+00 -4.860e-01 0.34 0.33 0.33
450 3 1.304e+02 8.548e+00 -5.298e-01 0.33 0.34 0.33
451 3 1.302e+02 6.945e+00 1.428e+00 0.34 0.33 0.33
452 2 1.285e+02 8.441e+00 1.208e+00 0.34 0.33 0.33
453 2 1.322e+02 7.069e+00 -4.022e-01 0.33 0.34 0.33
454 1 1.340e+02 8.551e+00 -5.445e-01 0.34 0.33 0.32
455 3 1.339e+02 6.652e+00 1.354e+00 0.34 0.34 0.33
456 1 1.321e+02 8.551e+00 1.353e+00 0.34 0.33 0.33
457 2 -2.893e-01 1.016e+01 -3.819e-01 0.34 0.34 0.32
458 2 1.437e+00 1.228e+01 -4.386e-01 0.34 0.34 0.32
459 1 1.345e+00 1.030e+01 1.286e+00 0.34 0.34 0.32
460 1 -3.933e-01 1.214e+01 1.145e+00 0.34 0.33 0.32
461 1 3.011e+00 1.022e+01 -4.858e-01 0.34 0.34 0.33
462 3 4.964e+00 1.207e+01 -4.788e-01 0.34 0.34 0.33
463 2 5.034e+00 1.010e+01 1.381e+00 0.34 0.34 0.32
464 2 3.181e+00 1.215e+01 1.385e+00 0.34 0.33 0.32
465 1 6.702e+00 1.018e+01 -4.006e-01 0.33 0.34 0.33
466 3 8.383e+00 1.211e+01 -2.576e-01 0.33 0.33 0.33
467 1 8.376e+00 1.005e+01 1.506e+00 0.33 0.34 0.33
468 3 6.641e+00 1.187e+01 1.478e+00 0.34 0.34 0.33
469 3 1.044e+01 1.011e+01 -3.130e-01 0.34 0.34 0.32
470 2 1.208e+01 1.207e+01 -3.956e-01 0.34 0.33 0.33
471 1 1.230e+01 1.040e+01 1.239e+00 0.34 0.33 0.33
472 3 1.031e+01 1.214e+01 1.441e+00 0.34 0.33 0.32
473 3 1.409e+01 1.028e+01 -4.342e-01 0.34 0.33 0.33
474 2 1.556e+01 1.205e+01 -2.427e-01 0.34 0.33 0.33
475 1 1.574e+01 1.033e+01 1.430e+00 0.34 0.33 0.33
476 3 1.408e+01 1.216e+01 1.440e+00 0.34 0.34 0.33
477 1 1.744e+01 1.029e+01 -3.884e-01 0.34 0.33 0.33
478 3 1.926e+01 1.212e+01 -4.447e-01 0.33 0.34 0.33
479 1 1.905e+01 1.022e+01 1.372e+00 0.33 0.33 0.33
480 1 1.748e+01 1.216e+01 1.459e+00 0.34 0.33 0.33
481 3 2.072e+01 1.040e+01 -3.941e-01 0.34 0.33 0.33
482 2 2.286e+01 1.219e+01 -3.656e-01 0.33 0.33 0.33
483 3 2.273e+01 1.052e+01 1.274e+00 0.34 0.33 0.33
484 2 2.102e+01 1.204e+01 1.476e+00 0.33 0.33 0.33
485 2 2.452e+01 1.031e+01 -2.566e-01 0.33 0.33 0.33
486 2 2.639e+01 1.205e+01 -3.236e-01 0.34 0.33 0.34
487 3 2.638e+01 1.008e+01 1.372e+00 0.33 0.33 0.34
488 3 2.451e+01 1.219e+01 1.371e+00 0.33 0.33 0.34
489 3 2.811e+01 1.045e+01 -4.176e-01 0.33 0.33 0.34
490 3 3.003e+01 1.199e+01 -4.929e-01 0.34 0.33 0.34
491 1 2.988e+01 1.040e+01 1.284e+00 0.33 0.33 0.34
492 2 2.800e+01 1.219e+01 1.329e+00 0.34 0.33 0.34
493 2 3.183e+01 1.028e+01 -5.413e-01 0.34 0.33 0.33
494 2 3.341e+01 1.212e+01 -6.441e-01 0.34 0.32 0.34
495 3 3.348e+01 1.034e+01 1.299e+00 0.33 0.33 0.34
496 2 3.176e+01 1.202e+01 1.288e+00 0.34 0.33 0.34
497 1 3.528e+01 1.030e+01 -4.273e-01 0.33 0.32 0.34
498 1 3.722e+01 1.210e+01 -3.321e-01 0.33 0.32 0.35
499 3 3.726e+01 1.023e+01 1.306e+00 0.33 0.32 0.34
500 1 3.540e+01 1.227e+01 1.307e+00 0.34 0.32 0.34
501 2 3.900e+01 1.016e+01 -4.876e-01 0.33 0.33 0.34
502 1 4.078e+01 1.204e+01 -3.989e-01 0.33 0.33 0.34
503 2 4.065e+01 1.019e+01 1.482e+00 0.33 0.33 0.34
504 3 3.902e+01 1.177e+01 1.395e+00 0.34 0.33 0.34
505 1 4.240e+01 1.031e+01 -4.643e-01 0.33 0.32 0.35
506 1 4.420e+01 1.223e+01 -6.904e-01 0.33 0.32 0.35
507 3 4.422e+01 1.031e+01 1.301e+00 0.33 0.32 0.35
508 1 4.251e+01 1.196e+01 1.322e+00 0.33 0.32 0.34
509 3 4.596e+01 1.046e+01 -5.594e-01 0.33 0.32 0.35
510 2 4.773e+01 1.214e+01 -7.240e-01 0.33 0.32 0.35
511 1 4.792e+01 1.043e+01 1.296e+00 0.33 0.32 0.35
512 2 4.599e+01 1.222e+01 1.197e+00 0.33 0.32 0.35
513 2 4.976e+01 1.037e+01 -5.478e-01 0.33 0.32 0.35
514 1 5.142e+01 1.213e+01 -4.428e-01 0.33 0.32 0.34
515 2 5.141e+01 1.046e+01 1.266e+00 0.33 0.32 0.35
516 3 4.969e+01 1.204e+01 1.213e+00 0.34 0.32 0.34
517 2 5.332e+01 1.036e+01 -5.382e-01 0.33 0.32 0.35
518 3 5.494e+01 1.188e+01 -3.419e-01 0.33 0.32 0.35
519 1 5.505e+01 1.013e+01 1.338e+00 0.33 0.32 0.35
520 3 5.329e+01 1.197e+01 1.435e+00 0.33 0.32 0.35
521 2 5.688e+01 1.029e+01 -3.403e-01 0.32 0.33 0.35
522 1 5.859e+01 1.207e+01 -4.623e-01 0.32 0.33 0.34
523 3 5.861e+01 1.043e+01 1.364e+00 0.32 0.33 0.34
524 1 5.676e+01 1.182e+01 1.618e+00 0.33 0.33 0.34
525 3 6.037e+01 1.035e+01 -4.642e-01 0.33 0.33 0.34
526 3 6.230e+01 1.218e+01 -4.610e-01 0.32 0.33 0.34
527 3 6.205e+01 1.036e+01 1.474e+00 0.32 0.34 0.34
528 1 6.046e+01 1.205e+01 1.301e+00 0.32 0.34 0.34
529 2 6.396e+01 1.043e+01 -2.638e-01 0.33 0.34 0.33
530 1 6.594e+01 1.224e+01 -3.292e-01 0.33 0.34 0.33
531 3 6.579e+01 1.055e+01 1.193e+00 0.33 0.34 0.33
532 3 6.406e+01 1.242e+01 1.409e+00 0.32 0.34 0.34
533 1 6.787e+01 1.035e+01 -4.225e-01 0.33 0.35 0.33
534 2 6.961e+01 1.236e+01 -3.915e-01 0.33 0.35 0.33
535 1 6.959e+01 1.056e+01 1.337e+00 0.33 0.34 0.33
536 1 6.767e+01 1.230e+01 1.389e+00 0.33 0.34 0.33
537 2 7.132e+01 1.054e+01 -4.364e-01 0.33 0.35 0.32
538 3 7.293e+01 1.224e+01 -4.691e-01 0.32 0.35 0.32
539 1 7.298e+01 1.038e+01 1.338e+00 0.33 0.35 0.32
540 1 7.130e+01 1.219e+01 1.550e+00 0.33 0.35 0.32
541 2 7.471e+01 1.046e+01 -4.149e-01 0.33 0.36 0.32
542 2 7.652e+01 1.218e+01 -4.834e-01 0.33 0.36 0.31
543 3 7.652e+01 1.036e+01 1.109e+00 0.33 0.36 0.31
544 2 7.492e+01 1.223e+01 1.325e+00 0.33 0.36 0.31
545 3 7.839e+01 1.033e+01 -4.626e-01 0.32 0.36 0.31
546 1 8.025e+01 1.210e+01 -3.486e-01 0.33 0.37 0.31
547 2 8.016e+01 1.039e+01 1.385e+00 0.33 0.36 0.31
548 3 7.846e+01 1.200e+01 1.239e+00 0.33 0.36 0.31
549 3 8.194e+01 1.024e+01 -3.433e-01 0.33 0.36 0.31
550 1 8.367e+01 1.201e+01 -3.386e-01 0.33 0.37 0.31
551 2 8.386e+01 1.022e+01 1.361e+00 0.32 0.37 0.31
552 3 8.200e+01 1.205e+01 1.459e+00 0.33 0.36 0.31
553 2 8.557e+01 1.030e+01 -4.085e-01 0.33 0.36 0.31
554 2 8.726e+01 1.199e+01 -3.352e-01 0.32 0.36 0.32
555 2 8.716e+01 1.032e+01 1.493e+00 0.33 0.36 0.31
556 1 8.546e+01 1.192e+01 1.500e+00 0.32 0.36 0.31
557 2 8.904e+01 1.033e+01 -3.702e-01 0.32 0.36 0.32
558 1 9.093e+01 1.215e+01 -3.200e-01 0.32 0.36 0.32
559 2 9.084e+01 1.052e+01 1.536e+00 0.32 0.36 0.32
560 1 8.907e+01 1.229e+01 1.337e+00 0.32 0.36 0.32
561 1 9.274e+01 1.049e+01 -5.783e-01 0.32 0.36 0.33
562 1 9.436e+01 1.212e+01 -5.539e-01 0.32 0.35 0.33
563 2 9.419e+01 1.007e+01 1.424e+00 0.32 0.36 0.33
564 3 9.261e+01 1.210e+01 1.353e+00 0.32 0.36 0.32
565 3 9.591e+01 1.006e+01 -3.795e-01 0.32 0.35 0.33
566 1 9.807e+01 1.175e+01 -3.952e-01 0.32 0.35 0.33
567 2 9.790e+01 1.016e+01 1.413e+00 0.32 0.35 0.33
568 3 9.608e+01 1.198e+01 1.332e+00 0.32 0.35 0.33
569 3 9.973e+01 1.023e+01 -4.644e-01 0.32 0.34 0.33
570 1 1.016e+02 1.214e+01 -5.377e-01 0.32 0.34 0.34
571 3 1.016e+02 1.026e+01 1.208e+00 0.33 0.34 0.33
572 1 9.971e+01 1.211e+01 1.335e+00 0.33 0.34 0.33
573 2 1.034e+02 1.032e+01 -4.214e-01 0.33 0.34 0.33
575 2 1.049e+02 1.022e+01 1.419e+00 0.33 0.34 0.32
577 3 1.067e+02 1.033e+01 -2.329e-01 0.33 0.34 0.33
579 1 1.086e+02 1.028e+01 1.403e+00 0.34 0.34 0.33