ITEM: TIMESTEP
0
ITEM: NUMBER OF ATOMS
19691
ITEM: BOX BOUNDS xy xz yz pp pp pp
                     -3.07798438810391e-01 2.47097551954042e+02 0.00000000000000e+00
-2.92161580753529e-01	2.24629479745461e+02	0.00000000000000e+00
-1.53257753945104e-01	1.49797745270883e+02	0.00000000000000e+00
ITEM: ATOMS id type x y z p1 p2 p3
88586 1 1.852e+02 5.952e+00 1.871e+01 0.89 0.11 0.00
88588 1 1.887e+02 5.913e+00 1.872e+01 0.90 0.10 0.00
88589 1 1.906e+02 4.747e+00 1.736e+01 0.90 0.10 0.00
88590 1 1.923e+02 6.020e+00 1.860e+01 0.91 0.09 0.00
88592 2 1.959e+02 6.060e+00 1.860e+01 0.93 0.07 0.00
88593 1 1.976e+02 4.671e+00 1.726e+01 0.91 0.09 0.00
88594 1 1.994e+02 5.837e+00 1.850e+01 0.92 0.08 0.00
88595 1 2.012e+02 4.686e+00 1.729e+01 0.91 0.09 0.00
88596 1 2.030e+02 5.852e+00 1.862e+01 0.94 0.06 0.00
88727 1 1.871e+02 7.177e+00 1.733e+01 0.89 0.11 0.00
88728 2 1.888e+02 8.445e+00 1.858e+01 0.92 0.08 0.00
88729 1 1.906e+02 7.163e+00 1.741e+01 0.90 0.10 0.00
88730 1 1.923e+02 8.566e+00 1.862e+01 0.90 0.10 0.00
88733 1 1.977e+02 7.221e+00 1.737e+01 0.93 0.07 0.00
88734 1 1.996e+02 8.396e+00 1.854e+01 0.93 0.07 0.00
88735 1 2.012e+02 7.118e+00 1.739e+01 0.93 0.07 0.00
89010 1 1.923e+02 1.355e+01 1.850e+01 0.89 0.11 0.00
89012 1 1.961e+02 1.341e+01 1.855e+01 0.91 0.09 0.00
89014 1 1.994e+02 1.340e+01 1.860e+01 0.92 0.08 0.00
89016 1 2.030e+02 1.345e+01 1.860e+01 0.91 0.09 0.00
89149 1 1.905e+02 1.465e+01 1.742e+01 0.89 0.11 0.00
89150 1 1.923e+02 1.603e+01 1.853e+01 0.90 0.10 0.00
89151 1 1.942e+02 1.469e+01 1.734e+01 0.90 0.10 0.00
89152 1 1.959e+02 1.590e+01 1.864e+01 0.89 0.11 0.00
89153 1 1.977e+02 1.469e+01 1.729e+01 0.90 0.10 0.00
89154 1 1.994e+02 1.581e+01 1.859e+01 0.92 0.08 0.00
89155 1 2.012e+02 1.460e+01 1.732e+01 0.89 0.11 0.00
89156 1 2.030e+02 1.587e+01 1.867e+01 0.91 0.09 0.00
89157 1 2.048e+02 1.461e+01 1.729e+01 0.88 0.12 0.00
89276 1 1.676e+02 1.849e+01 1.867e+01 0.89 0.11 0.00
89289 1 1.905e+02 1.725e+01 1.735e+01 0.90 0.10 0.00
89291 1 1.940e+02 1.726e+01 1.731e+01 0.89 0.11 0.00
89293 2 1.977e+02 1.710e+01 1.728e+01 0.90 0.10 0.00
89295 1 2.011e+02 1.712e+01 1.748e+01 0.90 0.10 0.00
89297 1 2.048e+02 1.711e+01 1.739e+01 0.88 0.12 0.00
89415 1 1.656e+02 1.978e+01 1.738e+01 0.89 0.11 0.00
89416 1 1.675e+02 2.092e+01 1.854e+01 0.92 0.08 0.00
89555 1 1.657e+02 2.216e+01 1.730e+01 0.92 0.08 0.00
89577 2 2.047e+02 2.220e+01 1.741e+01 0.90 0.10 0.00
89716 2 2.029e+02 2.591e+01 1.849e+01 0.91 0.09 0.00
89717 1 2.049e+02 2.471e+01 1.746e+01 0.90 0.10 0.00
89835 2 1.657e+02 2.724e+01 1.735e+01 0.92 0.08 0.00
89836 1 1.676e+02 2.842e+01 1.862e+01 0.92 0.08 0.00
89837 1 1.693e+02 2.718e+01 1.747e+01 0.91 0.09 0.00
89838 1 1.711e+02 2.847e+01 1.859e+01 0.91 0.09 0.00
89839 1 1.729e+02 2.724e+01 1.739e+01 0.93 0.07 0.00
89840 1 1.747e+02 2.850e+01 1.864e+01 0.93 0.07 0.00
89841 1 1.764e+02 2.713e+01 1.747e+01 0.92 0.08 0.00
89842 1 1.782e+02 2.847e+01 1.868e+01 0.91 0.09 0.00
89843 1 1.799e+02 2.727e+01 1.737e+01 0.89 0.11 0.00
89844 1 1.817e+02 2.843e+01 1.858e+01 0.90 0.10 0.00
89975 1 1.657e+02 2.983e+01 1.742e+01 0.91 0.09 0.00
89976 1 1.676e+02 3.088e+01 1.864e+01 0.92 0.08 0.00
89977 1 1.694e+02 2.955e+01 1.727e+01 0.91 0.09 0.00
89978 1 1.712e+02 3.098e+01 1.856e+01 0.90 0.10 0.00
89979 1 1.728e+02 2.979e+01 1.737e+01 0.91 0.10 0.00
89980 1 1.746e+02 3.088e+01 1.860e+01 0.92 0.08 0.00
89981 2 1.764e+02 2.976e+01 1.740e+01 0.92 0.08 0.00
89982 1 1.782e+02 3.093e+01 1.869e+01 0.92 0.08 0.00
89983 1 1.799e+02 2.971e+01 1.732e+01 0.90 0.10 0.00
89984 2 1.817e+02 3.093e+01 1.864e+01 0.91 0.09 0.00
90258 1 1.710e+02 3.591e+01 1.860e+01 0.90 0.10 0.00
90260 1 1.746e+02 3.598e+01 1.869e+01 0.88 0.12 0.00
90262 2 1.781e+02 3.586e+01 1.850e+01 0.91 0.09 0.00
90264 1 1.817e+02 3.594e+01 1.851e+01 0.89 0.11 0.00
90266 2 1.853e+02 3.589e+01 1.857e+01 0.92 0.08 0.00
90268 1 1.888e+02 3.615e+01 1.857e+01 0.93 0.07 0.00
90398 1 1.711e+02 3.843e+01 1.873e+01 0.89 0.11 0.00
90399 1 1.728e+02 3.708e+01 1.749e+01 0.89 0.11 0.00
90400 1 1.747e+02 3.857e+01 1.856e+01 0.87 0.13 0.00
90401 1 1.764e+02 3.725e+01 1.722e+01 0.89 0.11 0.00
90402 1 1.783e+02 3.837e+01 1.849e+01 0.91 0.09 0.00
90403 1 1.800e+02 3.709e+01 1.741e+01 0.89 0.11 0.00
90404 1 1.816e+02 3.845e+01 1.864e+01 0.87 0.13 0.00
90405 1 1.835e+02 3.726e+01 1.738e+01 0.89 0.11 0.00
90406 1 1.852e+02 3.845e+01 1.869e+01 0.90 0.10 0.00
90407 1 1.870e+02 3.737e+01 1.747e+01 0.91 0.09 0.00
90537 2 1.693e+02 3.979e+01 1.736e+01 0.90 0.10 0.00
90539 1 1.728e+02 3.968e+01 1.729e+01 0.88 0.12 0.00
90541 1 1.765e+02 3.971e+01 1.735e+01 0.89 0.11 0.00
90543 2 1.800e+02 3.973e+01 1.728e+01 0.88 0.12 0.00
90545 1 1.835e+02 3.969e+01 1.741e+01 0.89 0.11 0.00
90547 1 1.870e+02 3.981e+01 1.735e+01 0.92 0.08 0.00
92653 1 1.976e+02 7.725e+01 1.734e+01 0.93 0.07 0.00
92654 1 1.994e+02 7.833e+01 1.841e+01 0.92 0.08 0.00
92656 1 2.029e+02 7.847e+01 1.854e+01 0.93 0.07 0.00
92657 1 2.046e+02 7.715e+01 1.730e+01 0.93 0.07 0.00
92782 1 1.782e+02 8.086e+01 1.853e+01 0.92 0.08 0.00
92795 1 2.012e+02 7.964e+01 1.726e+01 0.93 0.07 0.00
92797 1 2.046e+02 7.973e+01 1.730e+01 0.93 0.07 0.00
92915 1 1.659e+02 8.223e+01 1.722e+01 0.92 0.08 0.00
92916 1 1.677e+02 8.361e+01 1.867e+01 0.93 0.07 0.00
92917 1 1.693e+02 8.225e+01 1.725e+01 0.93 0.07 0.00
92918 1 1.711e+02 8.341e+01 1.847e+01 0.92 0.08 0.00
92920 1 1.747e+02 8.339e+01 1.852e+01 0.92 0.08 0.00
92921 1 1.764e+02 8.211e+01 1.725e+01 0.91 0.09 0.00
93059 1 1.729e+02 8.475e+01 1.734e+01 0.93 0.07 0.00
93061 1 1.763e+02 8.466e+01 1.735e+01 0.91 0.09 0.00
95152 1 1.604e+02 1.233e+02 1.875e+01 0.89 0.11 0.00
95154 1 1.639e+02 1.234e+02 1.849e+01 0.89 0.11 0.00
95272 1 1.250e+02 1.259e+02 1.850e+01 0.88 0.12 0.00
95274 1 1.288e+02 1.259e+02 1.853e+01 0.90 0.10 0.00
95276 2 1.324e+02 1.259e+02 1.848e+01 0.91 0.09 0.00
95278 2 1.357e+02 1.259e+02 1.863e+01 0.88 0.12 0.00
95280 1 1.393e+02 1.259e+02 1.848e+01 0.86 0.14 0.00
95413 1 1.269e+02 1.270e+02 1.737e+01 0.90 0.10 0.00
95416 1 1.324e+02 1.282e+02 1.861e+01 0.91 0.09 0.00
95417 1 1.341e+02 1.271e+02 1.732e+01 0.90 0.10 0.00
95419 1 1.375e+02 1.271e+02 1.744e+01 0.86 0.14 0.00
95421 1 1.409e+02 1.272e+02 1.726e+01 0.86 0.14 0.00
95553 1 1.270e+02 1.296e+02 1.736e+01 0.90 0.10 0.00
95555 1 1.304e+02 1.296e+02 1.744e+01 0.90 0.10 0.00
95557 1 1.340e+02 1.296e+02 1.740e+01 0.90 0.10 0.00
95853 2 1.622e+02 1.346e+02 1.741e+01 0.91 0.09 0.00
97098 1 1.358e+02 1.583e+02 1.862e+01 0.89 0.11 0.00
97099 1 1.375e+02 1.572e+02 1.728e+01 0.89 0.11 0.00
97100 1 1.394e+02 1.584e+02 1.849e+01 0.89 0.11 0.00
97102 1 1.429e+02 1.585e+02 1.861e+01 0.91 0.09 0.00
97103 2 1.447e+02 1.572e+02 1.723e+01 0.91 0.09 0.00
97104 1 1.465e+02 1.584e+02 1.856e+01 0.90 0.10 0.00
97105 1 1.481e+02 1.572e+02 1.729e+01 0.89 0.11 0.00
97106 1 1.498e+02 1.583e+02 1.841e+01 0.90 0.10 0.00
97108 1 1.535e+02 1.583e+02 1.865e+01 0.90 0.10 0.00
97234 1 1.288e+02 1.609e+02 1.864e+01 0.91 0.09 0.00
97235 1 1.306e+02 1.596e+02 1.736e+01 0.90 0.10 0.00
97236 1 1.323e+02 1.609e+02 1.865e+01 0.90 0.10 0.00
97237 1 1.340e+02 1.596e+02 1.735e+01 0.90 0.10 0.00
97240 1 1.393e+02 1.609e+02 1.850e+01 0.89 0.11 0.00
97242 1 1.429e+02 1.609e+02 1.855e+01 0.89 0.11 0.00
97244 1 1.464e+02 1.609e+02 1.855e+01 0.90 0.10 0.00
97245 1 1.481e+02 1.597e+02 1.741e+01 0.91 0.09 0.00
97247 1 1.516e+02 1.595e+02 1.732e+01 0.89 0.11 0.00
97659 1 1.376e+02 1.672e+02 1.738e+01 0.91 0.09 0.00
97660 1 1.394e+02 1.684e+02 1.863e+01 0.92 0.08 0.00
97661 1 1.411e+02 1.673e+02 1.738e+01 0.91 0.09 0.00
97662 1 1.429e+02 1.684e+02 1.860e+01 0.92 0.08 0.00
97663 1 1.446e+02 1.672e+02 1.723e+01 0.89 0.11 0.00
97664 1 1.463e+02 1.684e+02 1.854e+01 0.89 0.11 0.00
97665 1 1.482e+02 1.671e+02 1.726e+01 0.88 0.12 0.00
97666 1 1.500e+02 1.684e+02 1.851e+01 0.87 0.13 0.00
97667 1 1.517e+02 1.672e+02 1.726e+01 0.87 0.13 0.00
97668 1 1.533e+02 1.684e+02 1.872e+01 0.88 0.12 0.00
97669 1 1.552e+02 1.672e+02 1.742e+01 0.87 0.13 0.00
97670 1 1.571e+02 1.684e+02 1.861e+01 0.87 0.13 0.00
97671 1 1.587e+02 1.671e+02 1.738e+01 0.89 0.11 0.00
97799 1 1.376e+02 1.696e+02 1.738e+01 0.91 0.09 0.00
97801 1 1.411e+02 1.698e+02 1.725e+01 0.92 0.08 0.00
97803 1 1.447e+02 1.697e+02 1.730e+01 0.90 0.10 0.00
97805 1 1.482e+02 1.696e+02 1.731e+01 0.89 0.11 0.00
97807 2 1.516e+02 1.696e+02 1.719e+01 0.86 0.14 0.00
97809 2 1.552e+02 1.694e+02 1.754e+01 0.89 0.11 0.00
97811 1 1.588e+02 1.696e+02 1.724e+01 0.88 0.12 0.00
98084 1 1.463e+02 1.759e+02 1.861e+01 0.92 0.08 0.00
98086 1 1.500e+02 1.759e+02 1.867e+01 0.91 0.09 0.00
98088 1 1.534e+02 1.759e+02 1.857e+01 0.88 0.12 0.00
98090 1 1.569e+02 1.759e+02 1.844e+01 0.89 0.11 0.00
98092 1 1.605e+02 1.758e+02 1.859e+01 0.90 0.10 0.00
98094 1 1.639e+02 1.759e+02 1.850e+01 0.91 0.09 0.00
98222 1 1.429e+02 1.784e+02 1.852e+01 0.92 0.08 0.00
98223 1 1.446e+02 1.772e+02 1.730e+01 0.90 0.10 0.00
98224 1 1.464e+02 1.784e+02 1.856e+01 0.92 0.08 0.00
98225 1 1.482e+02 1.771e+02 1.738e+01 0.93 0.07 0.00
98226 1 1.499e+02 1.784e+02 1.869e+01 0.92 0.08 0.00
98227 1 1.516e+02 1.772e+02 1.741e+01 0.90 0.10 0.00
98228 1 1.535e+02 1.784e+02 1.862e+01 0.90 0.10 0.00
98229 1 1.551e+02 1.771e+02 1.729e+01 0.88 0.12 0.00
98230 1 1.569e+02 1.783e+02 1.852e+01 0.89 0.11 0.00
98231 1 1.588e+02 1.771e+02 1.744e+01 0.88 0.12 0.00
98232 1 1.604e+02 1.784e+02 1.857e+01 0.89 0.11 0.00
98233 1 1.621e+02 1.771e+02 1.731e+01 0.89 0.11 0.00
98234 1 1.640e+02 1.783e+02 1.871e+01 0.91 0.09 0.00
98369 2 1.550e+02 1.796e+02 1.730e+01 0.90 0.10 0.00
98371 1 1.587e+02 1.796e+02 1.729e+01 0.88 0.12 0.00
98373 1 1.622e+02 1.796e+02 1.731e+01 0.90 0.10 0.00
98652 1 1.605e+02 1.859e+02 1.862e+01 0.90 0.10 0.00
98788 1 1.535e+02 1.883e+02 1.864e+01 0.91 0.09 0.00
98790 1 1.570e+02 1.884e+02 1.857e+01 0.92 0.08 0.00
98791 1 1.588e+02 1.872e+02 1.738e+01 0.92 0.08 0.00
98792 1 1.606e+02 1.884e+02 1.867e+01 0.92 0.08 0.00
98793 1 1.624e+02 1.870e+02 1.735e+01 0.91 0.09 0.00
98912 2 1.253e+02 1.910e+02 1.863e+01 0.91 0.09 0.00
98913 1 1.270e+02 1.896e+02 1.730e+01 0.91 0.09 0.00
98914 1 1.286e+02 1.909e+02 1.861e+01 0.92 0.08 0.00
98915 1 1.304e+02 1.896e+02 1.749e+01 0.92 0.08 0.00
98916 1 1.322e+02 1.909e+02 1.856e+01 0.92 0.08 0.00
98917 1 1.340e+02 1.896e+02 1.736e+01 0.94 0.06 0.00
99053 1 1.270e+02 1.922e+02 1.732e+01 0.91 0.09 0.00
99055 1 1.304e+02 1.922e+02 1.746e+01 0.91 0.09 0.00
99212 1 1.605e+02 1.959e+02 1.870e+01 0.86 0.14 0.00
99213 1 1.623e+02 1.949e+02 1.730e+01 0.91 0.09 0.00
99214 1 1.640e+02 1.959e+02 1.861e+01 0.90 0.10 0.00
99332 1 1.252e+02 1.985e+02 1.859e+01 0.89 0.11 0.00
99334 1 1.286e+02 1.984e+02 1.858e+01 0.91 0.09 0.00
99336 1 1.321e+02 1.983e+02 1.855e+01 0.90 0.10 0.00
99338 1 1.357e+02 1.984e+02 1.862e+01 0.91 0.09 0.00
99340 1 1.393e+02 1.984e+02 1.865e+01 0.91 0.09 0.00
99353 1 1.623e+02 1.972e+02 1.737e+01 0.89 0.11 0.00
99472 1 1.251e+02 2.009e+02 1.859e+01 0.91 0.09 0.00
99473 1 1.269e+02 1.996e+02 1.731e+01 0.91 0.09 0.00
99474 1 1.286e+02 2.008e+02 1.855e+01 0.92 0.08 0.00
99475 2 1.304e+02 1.996e+02 1.731e+01 0.90 0.10 0.00
99476 1 1.321e+02 2.008e+02 1.863e+01 0.89 0.11 0.00
99477 1 1.340e+02 1.997e+02 1.745e+01 0.90 0.10 0.00
99478 1 1.357e+02 2.009e+02 1.865e+01 0.92 0.08 0.00
99479 1 1.375e+02 1.997e+02 1.740e+01 0.90 0.10 0.00
99480 1 1.393e+02 2.009e+02 1.859e+01 0.91 0.09 0.00
99481 1 1.411e+02 1.995e+02 1.739e+01 0.92 0.08 0.00
99615 1 1.304e+02 2.021e+02 1.728e+01 0.90 0.10 0.00
99621 1 1.411e+02 2.021e+02 1.746e+01 0.92 0.08 0.00
99898 1 1.356e+02 2.084e+02 1.860e+01 0.90 0.10 0.00
99899 1 1.375e+02 2.072e+02 1.744e+01 0.89 0.11 0.00
99900 1 1.392e+02 2.084e+02 1.865e+01 0.91 0.09 0.00
99901 1 1.410e+02 2.072e+02 1.740e+01 0.91 0.09 0.00
99902 1 1.427e+02 2.083e+02 1.858e+01 0.89 0.11 0.00
99903 1 1.446e+02 2.071e+02 1.738e+01 0.88 0.12 0.00
99904 1 1.462e+02 2.083e+02 1.863e+01 0.88 0.12 0.00
99905 1 1.482e+02 2.072e+02 1.738e+01 0.90 0.10 0.00
99906 1 1.499e+02 2.083e+02 1.851e+01 0.88 0.12 0.00
99907 1 1.518e+02 2.071e+02 1.733e+01 0.91 0.09 0.00
99908 1 1.535e+02 2.083e+02 1.869e+01 0.90 0.10 0.00
99909 1 1.552e+02 2.072e+02 1.737e+01 0.92 0.08 0.00
100038 1 1.356e+02 2.108e+02 1.868e+01 0.91 0.09 0.00
100039 1 1.374e+02 2.097e+02 1.729e+01 0.91 0.09 0.00
100040 2 1.391e+02 2.109e+02 1.852e+01 0.91 0.09 0.00
100041 1 1.411e+02 2.096e+02 1.740e+01 0.90 0.10 0.00
100042 2 1.427e+02 2.108e+02 1.855e+01 0.89 0.11 0.00
100043 1 1.445e+02 2.096e+02 1.744e+01 0.88 0.12 0.00
100044 2 1.463e+02 2.108e+02 1.870e+01 0.87 0.13 0.00
100045 1 1.480e+02 2.096e+02 1.736e+01 0.87 0.13 0.00
100046 2 1.500e+02 2.108e+02 1.850e+01 0.88 0.12 0.00
100047 1 1.517e+02 2.095e+02 1.732e+01 0.89 0.11 0.00
100322 2 1.426e+02 2.158e+02 1.854e+01 0.91 0.09 0.00
100324 1 1.463e+02 2.158e+02 1.859e+01 0.88 0.12 0.00
100326 1 1.499e+02 2.158e+02 1.874e+01 0.87 0.13 0.00
100328 1 1.534e+02 2.159e+02 1.856e+01 0.88 0.12 0.00
100330 1 1.569e+02 2.158e+02 1.863e+01 0.90 0.10 0.00
100332 1 1.605e+02 2.158e+02 1.872e+01 0.89 0.11 0.00
100334 1 1.641e+02 2.157e+02 1.868e+01 0.89 0.11 0.00
100462 1 1.428e+02 2.183e+02 1.855e+01 0.90 0.10 0.00
100463 1 1.446e+02 2.170e+02 1.743e+01 0.89 0.11 0.00
100464 1 1.463e+02 2.183e+02 1.870e+01 0.89 0.11 0.00
100465 1 1.481e+02 2.171e+02 1.744e+01 0.88 0.12 0.00
100466 1 1.500e+02 2.183e+02 1.865e+01 0.86 0.14 0.00
100467 1 1.516e+02 2.171e+02 1.755e+01 0.86 0.14 0.00
100468 1 1.533e+02 2.184e+02 1.857e+01 0.88 0.12 0.00
100469 2 1.552e+02 2.170e+02 1.742e+01 0.91 0.09 0.00
100470 1 1.570e+02 2.183e+02 1.860e+01 0.92 0.08 0.00
100471 1 1.588e+02 2.171e+02 1.739e+01 0.88 0.12 0.00
100472 1 1.606e+02 2.183e+02 1.861e+01 0.89 0.11 0.00
100473 1 1.623e+02 2.170e+02 1.735e+01 0.88 0.12 0.00
100603 1 1.445e+02 2.194e+02 1.738e+01 0.90 0.10 0.00
100605 1 1.481e+02 2.196e+02 1.727e+01 0.89 0.11 0.00
100607 1 1.517e+02 2.195e+02 1.726e+01 0.88 0.12 0.00
100609 2 1.551e+02 2.198e+02 1.739e+01 0.92 0.08 0.00
100611 1 1.587e+02 2.197e+02 1.735e+01 0.91 0.09 0.00
100904 1 1.817e+02 9.998e-01 2.115e+01 0.90 0.10 0.00
100906 1 1.852e+02 9.737e-01 2.119e+01 0.90 0.10 0.00
100908 1 1.888e+02 9.595e-01 2.105e+01 0.91 0.09 0.00
100910 1 1.925e+02 1.032e+00 2.120e+01 0.91 0.09 0.00
100912 1 1.959e+02 9.571e-01 2.115e+01 0.89 0.11 0.00
101044 1 1.817e+02 3.412e+00 2.118e+01 0.90 0.10 0.00
101046 1 1.853e+02 3.486e+00 2.110e+01 0.89 0.11 0.00
101048 2 1.886e+02 3.300e+00 2.115e+01 0.92 0.08 0.00
101050 1 1.923e+02 3.675e+00 2.114e+01 0.90 0.10 0.00
101052 1 1.958e+02 3.471e+00 2.100e+01 0.92 0.08 0.00
101185 1 1.834e+02 4.797e+00 1.996e+01 0.87 0.13 0.00
101187 1 1.870e+02 4.692e+00 1.996e+01 0.91 0.09 0.00
101191 1 1.941e+02 4.759e+00 1.978e+01 0.91 0.09 0.00
101193 1 1.977e+02 4.657e+00 1.986e+01 0.93 0.07 0.00
101195 1 2.011e+02 4.676e+00 1.981e+01 0.93 0.07 0.00
101327 1 1.871e+02 7.342e+00 1.989e+01 0.91 0.09 0.00
101329 1 1.905e+02 7.312e+00 1.995e+01 0.91 0.09 0.00
101331 1 1.941e+02 7.279e+00 1.983e+01 0.92 0.08 0.00
101333 1 1.977e+02 7.122e+00 1.981e+01 0.92 0.08 0.00
101440 2 1.394e+02 1.090e+01 2.113e+01 0.90 0.10 0.00
101446 1 1.500e+02 1.090e+01 2.112e+01 0.93 0.07 0.00
101448 1 1.534e+02 1.091e+01 2.106e+01 0.95 0.05 0.00
101450 1 1.569e+02 1.097e+01 2.119e+01 0.93 0.07 0.00
101452 1 1.605e+02 1.093e+01 2.123e+01 0.89 0.11 0.00
101454 1 1.641e+02 1.096e+01 2.125e+01 0.91 0.09 0.00
101466 2 1.854e+02 1.112e+01 2.119e+01 0.91 0.09 0.00
101468 1 1.888e+02 1.094e+01 2.107e+01 0.89 0.11 0.00
101470 2 1.924e+02 1.120e+01 2.119e+01 0.91 0.09 0.00
101472 1 1.961e+02 1.091e+01 2.108e+01 0.92 0.08 0.00
101474 2 1.993e+02 1.083e+01 2.111e+01 0.92 0.08 0.00
101476 1 2.029e+02 1.098e+01 2.110e+01 0.94 0.06 0.00
101596 1 1.675e+02 1.345e+01 2.111e+01 0.90 0.10 0.00
101736 1 1.675e+02 1.603e+01 2.104e+01 0.90 0.10 0.00
101749 1 1.905e+02 1.467e+01 1.986e+01 0.89 0.11 0.00
101751 1 1.942e+02 1.473e+01 1.971e+01 0.90 0.10 0.00
101753 1 1.977e+02 1.459e+01 1.989e+01 0.91 0.09 0.00
101755 1 2.012e+02 1.456e+01 1.981e+01 0.92 0.08 0.00
101757 1 2.048e+02 1.458e+01 1.998e+01 0.93 0.07 0.00
101860 1 1.393e+02 1.849e+01 2.113e+01 0.88 0.12 0.00
101862 1 1.430e+02 1.846e+01 2.104e+01 0.89 0.11 0.00
101864 1 1.465e+02 1.840e+01 2.111e+01 0.92 0.08 0.00
101866 1 1.499e+02 1.839e+01 2.118e+01 0.94 0.06 0.00
101868 1 1.535e+02 1.832e+01 2.113e+01 0.91 0.09 0.00
101870 1 1.570e+02 1.840e+01 2.123e+01 0.88 0.12 0.00
101886 1 1.853e+02 1.854e+01 2.113e+01 0.88 0.12 0.00
101888 1 1.889e+02 1.838e+01 2.112e+01 0.90 0.10 0.00
101889 2 1.906e+02 1.722e+01 1.981e+01 0.90 0.10 0.00
101890 1 1.922e+02 1.847e+01 2.097e+01 0.89 0.11 0.00
101891 1 1.941e+02 1.714e+01 1.983e+01 0.89 0.11 0.00
101892 1 1.959e+02 1.849e+01 2.107e+01 0.90 0.10 0.00
101893 1 1.977e+02 1.698e+01 1.998e+01 0.89 0.11 0.00
101894 1 1.992e+02 1.840e+01 2.113e+01 0.92 0.08 0.00
101895 1 2.012e+02 1.714e+01 1.990e+01 0.92 0.08 0.00
101896 1 2.030e+02 1.822e+01 2.104e+01 0.91 0.09 0.00
101897 1 2.049e+02 1.725e+01 1.985e+01 0.89 0.11 0.00
102000 1 1.393e+02 2.099e+01 2.104e+01 0.89 0.11 0.00
102002 1 1.429e+02 2.098e+01 2.101e+01 0.91 0.09 0.00
102004 1 1.464e+02 2.097e+01 2.115e+01 0.91 0.09 0.00
102006 2 1.498e+02 2.098e+01 2.103e+01 0.94 0.06 0.00
102008 1 1.536e+02 2.085e+01 2.116e+01 0.92 0.08 0.00
102015 1 1.658e+02 1.974e+01 1.988e+01 0.87 0.13 0.00
102026 1 1.853e+02 2.098e+01 2.119e+01 0.89 0.11 0.00
102028 1 1.888e+02 2.096e+01 2.111e+01 0.88 0.12 0.00
102030 2 1.924e+02 2.109e+01 2.115e+01 0.89 0.11 0.00
102032 1 1.957e+02 2.091e+01 2.104e+01 0.90 0.10 0.00
102034 1 1.994e+02 2.087e+01 2.101e+01 0.92 0.08 0.00
102155 1 1.659e+02 2.220e+01 1.971e+01 0.91 0.09 0.00
102317 2 2.047e+02 2.464e+01 2.005e+01 0.90 0.10 0.00
102420 2 1.393e+02 2.852e+01 2.114e+01 0.90 0.10 0.00
102422 1 1.428e+02 2.848e+01 2.104e+01 0.91 0.09 0.00
102424 1 1.464e+02 2.839e+01 2.114e+01 0.90 0.10 0.00
102426 1 1.500e+02 2.839e+01 2.105e+01 0.92 0.08 0.00
102435 1 1.658e+02 2.716e+01 1.985e+01 0.91 0.09 0.00
102437 1 1.693e+02 2.720e+01 1.989e+01 0.91 0.10 0.00
102439 1 1.729e+02 2.728e+01 1.983e+01 0.94 0.06 0.00
102441 1 1.764e+02 2.732e+01 1.984e+01 0.93 0.07 0.00
102443 1 1.798e+02 2.723e+01 1.983e+01 0.91 0.09 0.00
102444 1 1.817e+02 2.849e+01 2.107e+01 0.90 0.10 0.00
102446 1 1.851e+02 2.833e+01 2.109e+01 0.92 0.08 0.00
102448 1 1.889e+02 2.838e+01 2.117e+01 0.93 0.07 0.00
102450 1 1.923e+02 2.854e+01 2.113e+01 0.92 0.08 0.00
102452 1 1.959e+02 2.857e+01 2.105e+01 0.91 0.09 0.00
102558 1 1.357e+02 3.095e+01 2.121e+01 0.90 0.10 0.00
102560 1 1.392e+02 3.096e+01 2.118e+01 0.90 0.10 0.00
102562 1 1.429e+02 3.102e+01 2.118e+01 0.90 0.10 0.00
102564 1 1.463e+02 3.102e+01 2.122e+01 0.90 0.10 0.00
102566 2 1.499e+02 3.092e+01 2.114e+01 0.91 0.09 0.00
102575 1 1.658e+02 2.967e+01 1.985e+01 0.92 0.08 0.00
102577 1 1.694e+02 2.966e+01 1.979e+01 0.92 0.08 0.00
102579 1 1.728e+02 2.975e+01 1.985e+01 0.92 0.08 0.00
102581 1 1.764e+02 2.970e+01 1.981e+01 0.93 0.07 0.00
102583 1 1.800e+02 2.966e+01 1.992e+01 0.91 0.09 0.00
102584 1 1.817e+02 3.088e+01 2.110e+01 0.91 0.09 0.00
102586 1 1.852e+02 3.085e+01 2.104e+01 0.92 0.08 0.00
102588 1 1.888e+02 3.095e+01 2.105e+01 0.93 0.07 0.00
102590 2 1.924e+02 3.101e+01 2.107e+01 0.93 0.07 0.00
102592 1 1.959e+02 3.096e+01 2.113e+01 0.93 0.07 0.00
102844 2 1.464e+02 3.604e+01 2.117e+01 0.91 0.09 0.00
102846 1 1.500e+02 3.606e+01 2.108e+01 0.90 0.10 0.00
102848 1 1.535e+02 3.607e+01 2.117e+01 0.88 0.12 0.00
102850 1 1.569e+02 3.607e+01 2.116e+01 0.91 0.09 0.00
102852 1 1.606e+02 3.599e+01 2.114e+01 0.91 0.09 0.00
102854 1 1.641e+02 3.592e+01 2.118e+01 0.90 0.10 0.00
102868 1 1.887e+02 3.581e+01 2.109e+01 0.95 0.05 0.00
102870 1 1.922e+02 3.594e+01 2.113e+01 0.95 0.05 0.00
102872 1 1.959e+02 3.601e+01 2.123e+01 0.91 0.09 0.00
102874 1 1.993e+02 3.579e+01 2.120e+01 0.91 0.09 0.00
102876 1 2.028e+02 3.584e+01 2.115e+01 0.92 0.08 0.00
102984 1 1.464e+02 3.849e+01 2.132e+01 0.90 0.10 0.00
102986 1 1.499e+02 3.854e+01 2.111e+01 0.91 0.09 0.00
102988 1 1.534e+02 3.859e+01 2.122e+01 0.91 0.09 0.00
102990 1 1.569e+02 3.842e+01 2.115e+01 0.92 0.08 0.00
102992 1 1.605e+02 3.849e+01 2.111e+01 0.93 0.07 0.00
102994 1 1.641e+02 3.844e+01 2.109e+01 0.90 0.10 0.00
102997 1 1.693e+02 3.716e+01 1.997e+01 0.89 0.11 0.00
102999 1 1.729e+02 3.723e+01 1.995e+01 0.88 0.12 0.00
103001 1 1.765e+02 3.714e+01 1.975e+01 0.90 0.10 0.00
103003 1 1.799e+02 3.703e+01 1.986e+01 0.88 0.12 0.00
103005 1 1.835e+02 3.712e+01 1.992e+01 0.90 0.10 0.00
103007 1 1.870e+02 3.713e+01 1.992e+01 0.94 0.06 0.00
103008 1 1.888e+02 3.842e+01 2.112e+01 0.95 0.05 0.00
103010 1 1.924e+02 3.847e+01 2.108e+01 0.93 0.07 0.00
103012 1 1.959e+02 3.849e+01 2.122e+01 0.91 0.09 0.00
103014 1 1.993e+02 3.833e+01 2.118e+01 0.91 0.09 0.00
103016 1 2.029e+02 3.840e+01 2.109e+01 0.91 0.09 0.00
103137 2 1.693e+02 3.961e+01 1.999e+01 0.89 0.11 0.00
103139 2 1.728e+02 3.963e+01 1.986e+01 0.86 0.14 0.00
103141 1 1.764e+02 3.977e+01 1.985e+01 0.87 0.13 0.00
103143 1 1.798e+02 3.959e+01 1.982e+01 0.87 0.13 0.00
103145 1 1.834e+02 3.970e+01 1.995e+01 0.89 0.11 0.00
103147 1 1.870e+02 3.965e+01 1.990e+01 0.94 0.06 0.00
103400 1 1.392e+02 4.598e+01 2.115e+01 0.92 0.08 0.00
103402 1 1.429e+02 4.597e+01 2.108e+01 0.92 0.08 0.00
103406 1 1.498e+02 4.594e+01 2.122e+01 0.88 0.12 0.00
103408 1 1.533e+02 4.600e+01 2.110e+01 0.90 0.10 0.00
103416 1 1.676e+02 4.591e+01 2.116e+01 0.88 0.12 0.00
103418 1 1.711e+02 4.590e+01 2.119e+01 0.86 0.14 0.00
103420 1 1.747e+02 4.588e+01 2.116e+01 0.88 0.12 0.00
103422 1 1.782e+02 4.587e+01 2.117e+01 0.89 0.11 0.00
103424 1 1.817e+02 4.591e+01 2.117e+01 0.92 0.08 0.00
103426 1 1.851e+02 4.595e+01 2.112e+01 0.92 0.08 0.00
103428 1 1.888e+02 4.596e+01 2.108e+01 0.91 0.09 0.00
103538 1 1.358e+02 4.851e+01 2.113e+01 0.92 0.08 0.00
103540 1 1.392e+02 4.856e+01 2.117e+01 0.92 0.08 0.00
103544 1 1.464e+02 4.853e+01 2.112e+01 0.90 0.10 0.00
103546 1 1.498e+02 4.838e+01 2.116e+01 0.87 0.13 0.00
103548 2 1.534e+02 4.840e+01 2.126e+01 0.90 0.10 0.00
103556 1 1.676e+02 4.834e+01 2.114e+01 0.87 0.13 0.00
103558 1 1.711e+02 4.834e+01 2.110e+01 0.88 0.12 0.00
103560 1 1.748e+02 4.844e+01 2.129e+01 0.89 0.11 0.00
103562 1 1.782e+02 4.855e+01 2.121e+01 0.92 0.08 0.00
103564 1 1.817e+02 4.849e+01 2.121e+01 0.93 0.07 0.00
103566 1 1.852e+02 4.848e+01 2.112e+01 0.94 0.06 0.00
103958 1 1.358e+02 5.595e+01 2.120e+01 0.93 0.07 0.00
103960 1 1.393e+02 5.601e+01 2.107e+01 0.90 0.10 0.00
103962 1 1.428e+02 5.601e+01 2.113e+01 0.91 0.09 0.00
103964 1 1.463e+02 5.594e+01 2.097e+01 0.92 0.08 0.00
103966 1 1.500e+02 5.598e+01 2.109e+01 0.88 0.12 0.00
103968 1 1.536e+02 5.594e+01 2.109e+01 0.91 0.09 0.00
103976 2 1.676e+02 5.600e+01 2.103e+01 0.86 0.14 0.00
103978 1 1.710e+02 5.592e+01 2.111e+01 0.85 0.15 0.00
103980 1 1.747e+02 5.600e+01 2.114e+01 0.87 0.13 0.00
103982 1 1.783e+02 5.611e+01 2.110e+01 0.92 0.08 0.00
103984 1 1.817e+02 5.608e+01 2.109e+01 0.92 0.08 0.00
103986 2 1.853e+02 5.602e+01 2.110e+01 0.95 0.05 0.00
104378 1 1.357e+02 6.352e+01 2.117e+01 0.87 0.13 0.00
104380 1 1.395e+02 6.355e+01 2.118e+01 0.88 0.12 0.00
104382 1 1.429e+02 6.343e+01 2.109e+01 0.90 0.10 0.00
104384 1 1.464e+02 6.356e+01 2.115e+01 0.91 0.09 0.00
104386 1 1.499e+02 6.345e+01 2.103e+01 0.91 0.09 0.00
104398 2 1.712e+02 6.365e+01 2.098e+01 0.90 0.10 0.00
104400 1 1.746e+02 6.352e+01 2.114e+01 0.89 0.11 0.00
104402 2 1.781e+02 6.353e+01 2.099e+01 0.88 0.12 0.00
104404 1 1.817e+02 6.348e+01 2.108e+01 0.91 0.09 0.00
104406 1 1.852e+02 6.348e+01 2.112e+01 0.92 0.08 0.00
104514 1 1.287e+02 6.589e+01 2.105e+01 0.86 0.14 0.00
104516 1 1.322e+02 6.590e+01 2.113e+01 0.86 0.14 0.00
104518 2 1.357e+02 6.597e+01 2.111e+01 0.84 0.16 0.00
104520 1 1.394e+02 6.596e+01 2.112e+01 0.87 0.13 0.00
104522 1 1.429e+02 6.601e+01 2.104e+01 0.89 0.11 0.00
104524 1 1.464e+02 6.601e+01 2.119e+01 0.91 0.09 0.00
104526 1 1.499e+02 6.602e+01 2.102e+01 0.90 0.10 0.00
104536 1 1.675e+02 6.599e+01 2.104e+01 0.90 0.10 0.00
104538 1 1.710e+02 6.606e+01 2.111e+01 0.91 0.09 0.00
104540 1 1.746e+02 6.594e+01 2.105e+01 0.89 0.11 0.00
104542 1 1.783e+02 6.593e+01 2.119e+01 0.90 0.10 0.00
104544 1 1.817e+02 6.598e+01 2.118e+01 0.90 0.10 0.00
104546 1 1.852e+02 6.584e+01 2.105e+01 0.92 0.08 0.00
104696 1 2.031e+02 6.845e+01 2.114e+01 0.89 0.11 0.00
104836 1 2.031e+02 7.081e+01 2.104e+01 0.92 0.08 0.00
104934 1 1.286e+02 7.339e+01 2.113e+01 0.86 0.14 0.00
104936 1 1.323e+02 7.346e+01 2.100e+01 0.87 0.13 0.00
104938 1 1.357e+02 7.339e+01 2.099e+01 0.87 0.13 0.00
104940 1 1.393e+02 7.335e+01 2.095e+01 0.85 0.15 0.00
104956 1 1.675e+02 7.348e+01 2.101e+01 0.91 0.09 0.00
104958 1 1.712e+02 7.334e+01 2.108e+01 0.92 0.08 0.00
104960 1 1.746e+02 7.341e+01 2.106e+01 0.93 0.07 0.00
104962 1 1.782e+02 7.353e+01 2.119e+01 0.92 0.08 0.00
105074 2 1.288e+02 7.594e+01 2.100e+01 0.89 0.11 0.00
105076 1 1.322e+02 7.591e+01 2.102e+01 0.90 0.10 0.00
105078 1 1.358e+02 7.582e+01 2.093e+01 0.87 0.13 0.00
105080 1 1.393e+02 7.579e+01 2.103e+01 0.86 0.14 0.00
105096 1 1.677e+02 7.596e+01 2.098e+01 0.93 0.07 0.00
105098 1 1.711e+02 7.585e+01 2.109e+01 0.94 0.06 0.00
105100 1 1.746e+02 7.600e+01 2.109e+01 0.93 0.07 0.00
105102 1 1.781e+02 7.593e+01 2.103e+01 0.91 0.09 0.00
105253 1 1.977e+02 7.720e+01 1.974e+01 0.93 0.07 0.00
105254 1 1.995e+02 7.841e+01 2.096e+01 0.92 0.08 0.00
105255 1 2.011e+02 7.714e+01 1.981e+01 0.91 0.09 0.00
105256 1 2.028e+02 7.842e+01 2.095e+01 0.92 0.08 0.00
105354 1 1.287e+02 8.091e+01 2.108e+01 0.89 0.11 0.00
105356 2 1.322e+02 8.081e+01 2.113e+01 0.91 0.09 0.00
105358 1 1.358e+02 8.086e+01 2.117e+01 0.88 0.12 0.00
105360 1 1.393e+02 8.092e+01 2.111e+01 0.88 0.12 0.00
105376 1 1.675e+02 8.101e+01 2.097e+01 0.91 0.09 0.00
105378 1 1.711e+02 8.087e+01 2.105e+01 0.91 0.09 0.00
105380 1 1.747e+02 8.091e+01 2.104e+01 0.91 0.09 0.00
105395 1 2.012e+02 7.963e+01 1.973e+01 0.94 0.06 0.00
105397 1 2.047e+02 7.971e+01 1.979e+01 0.92 0.08 0.00
105492 1 1.251e+02 8.338e+01 2.102e+01 0.89 0.11 0.00
105494 1 1.287e+02 8.346e+01 2.105e+01 0.90 0.10 0.00
105496 1 1.322e+02 8.328e+01 2.107e+01 0.88 0.12 0.00
105498 1 1.356e+02 8.352e+01 2.110e+01 0.90 0.10 0.00
105500 1 1.392e+02 8.348e+01 2.117e+01 0.88 0.12 0.00
105515 1 1.659e+02 8.231e+01 1.972e+01 0.93 0.07 0.00
105516 2 1.676e+02 8.350e+01 2.109e+01 0.93 0.07 0.00
105517 1 1.693e+02 8.222e+01 1.980e+01 0.91 0.09 0.00
105518 1 1.711e+02 8.334e+01 2.098e+01 0.92 0.08 0.00
105652 1 1.606e+02 8.601e+01 2.104e+01 0.88 0.12 0.00
105654 1 1.643e+02 8.597e+01 2.112e+01 0.90 0.10 0.00
105657 2 1.694e+02 8.481e+01 1.968e+01 0.92 0.08 0.00
105659 1 1.729e+02 8.478e+01 1.970e+01 0.93 0.07 0.00
105670 1 1.924e+02 8.595e+01 2.110e+01 0.93 0.07 0.00
105672 1 1.958e+02 8.587e+01 2.104e+01 0.92 0.08 0.00
105674 2 1.994e+02 8.581e+01 2.111e+01 0.91 0.09 0.00
105676 1 2.030e+02 8.591e+01 2.100e+01 0.92 0.08 0.00
105790 1 1.569e+02 8.849e+01 2.100e+01 0.88 0.12 0.00
105792 1 1.606e+02 8.854e+01 2.088e+01 0.89 0.11 0.00
105794 1 1.641e+02 8.845e+01 2.111e+01 0.90 0.10 0.00
105810 1 1.923e+02 8.843e+01 2.099e+01 0.92 0.08 0.00
105812 1 1.958e+02 8.850e+01 2.111e+01 0.92 0.08 0.00
105814 1 1.993e+02 8.838e+01 2.113e+01 0.92 0.08 0.00
105816 1 2.029e+02 8.832e+01 2.115e+01 0.91 0.09 0.00
105912 1 1.251e+02 9.093e+01 2.105e+01 0.88 0.12 0.00
105914 1 1.285e+02 9.097e+01 2.105e+01 0.89 0.11 0.00
105916 1 1.322e+02 9.112e+01 2.097e+01 0.90 0.10 0.00
105918 1 1.359e+02 9.097e+01 2.122e+01 0.91 0.09 0.00
105920 1 1.393e+02 9.110e+01 2.120e+01 0.94 0.06 0.00
106052 2 1.250e+02 9.339e+01 2.107e+01 0.89 0.11 0.00
106054 1 1.286e+02 9.358e+01 2.106e+01 0.90 0.10 0.00
106056 1 1.322e+02 9.362e+01 2.118e+01 0.90 0.10 0.00
106058 1 1.357e+02 9.334e+01 2.115e+01 0.92 0.08 0.00
106060 1 1.392e+02 9.355e+01 2.101e+01 0.95 0.05 0.00
106210 1 1.570e+02 9.589e+01 2.110e+01 0.90 0.10 0.00
106212 1 1.606e+02 9.597e+01 2.099e+01 0.91 0.09 0.00
106214 1 1.641e+02 9.597e+01 2.097e+01 0.90 0.10 0.00
106350 1 1.570e+02 9.842e+01 2.108e+01 0.91 0.09 0.00
106352 1 1.604e+02 9.850e+01 2.101e+01 0.90 0.10 0.00
106354 1 1.641e+02 9.858e+01 2.104e+01 0.92 0.08 0.00
106472 1 1.251e+02 1.009e+02 2.117e+01 0.91 0.09 0.00
106474 1 1.286e+02 1.009e+02 2.105e+01 0.93 0.07 0.00
106476 1 1.323e+02 1.010e+02 2.103e+01 0.92 0.08 0.00
106628 1 1.533e+02 1.033e+02 2.090e+01 0.87 0.13 0.00
106630 2 1.570e+02 1.035e+02 2.090e+01 0.90 0.10 0.00
106632 1 1.605e+02 1.036e+02 2.104e+01 0.92 0.08 0.00
106634 1 1.640e+02 1.035e+02 2.098e+01 0.91 0.09 0.00
106766 1 1.498e+02 1.059e+02 2.098e+01 0.87 0.13 0.00
106768 2 1.533e+02 1.058e+02 2.098e+01 0.86 0.14 0.00
106770 1 1.569e+02 1.059e+02 2.093e+01 0.88 0.12 0.00
106772 2 1.606e+02 1.058e+02 2.116e+01 0.93 0.07 0.00
106774 1 1.639e+02 1.059e+02 2.107e+01 0.92 0.08 0.00
106892 2 1.252e+02 1.085e+02 2.092e+01 0.94 0.06 0.00
107032 1 1.252e+02 1.109e+02 2.104e+01 0.93 0.07 0.00
107182 1 1.428e+02 1.133e+02 2.109e+01 0.88 0.12 0.00
107184 1 1.462e+02 1.134e+02 2.117e+01 0.85 0.15 0.00
107186 1 1.499e+02 1.134e+02 2.114e+01 0.87 0.13 0.00
107188 1 1.534e+02 1.134e+02 2.112e+01 0.87 0.13 0.00
107190 1 1.569e+02 1.133e+02 2.098e+01 0.88 0.12 0.00
107320 1 1.392e+02 1.159e+02 2.114e+01 0.89 0.11 0.00
107322 1 1.427e+02 1.158e+02 2.104e+01 0.87 0.13 0.00
107324 1 1.462e+02 1.159e+02 2.111e+01 0.87 0.13 0.00
107326 1 1.499e+02 1.160e+02 2.099e+01 0.87 0.13 0.00
107328 1 1.534e+02 1.159e+02 2.112e+01 0.90 0.10 0.00
107734 1 1.287e+02 1.234e+02 2.107e+01 0.92 0.08 0.00
107736 1 1.322e+02 1.233e+02 2.093e+01 0.92 0.08 0.00
107738 1 1.357e+02 1.234e+02 2.109e+01 0.90 0.10 0.00
107740 1 1.392e+02 1.234e+02 2.103e+01 0.88 0.12 0.00
107742 2 1.428e+02 1.234e+02 2.108e+01 0.91 0.09 0.00
107744 1 1.464e+02 1.234e+02 2.097e+01 0.88 0.12 0.00
107746 1 1.499e+02 1.235e+02 2.109e+01 0.88 0.12 0.00
107751 1 1.586e+02 1.221e+02 1.993e+01 0.91 0.09 0.00
107753 1 1.623e+02 1.222e+02 1.983e+01 0.90 0.10 0.00
108015 1 1.306e+02 1.271e+02 1.972e+01 0.91 0.09 0.00
108154 1 1.288e+02 1.309e+02 2.105e+01 0.88 0.12 0.00
108155 1 1.305e+02 1.296e+02 1.980e+01 0.91 0.09 0.00
108156 1 1.321e+02 1.308e+02 2.108e+01 0.88 0.12 0.00
108158 2 1.357e+02 1.311e+02 2.102e+01 0.88 0.12 0.00
108160 1 1.393e+02 1.308e+02 2.095e+01 0.89 0.11 0.00