ITEM: TIMESTEP
0
ITEM: NUMBER OF ATOMS
20050
ITEM: BOX BOUNDS xy xz yz pp pp pp
                     -3.07798438810391e-01 2.47097551954042e+02 0.00000000000000e+00
-2.92161580753529e-01	2.24629479745461e+02	0.00000000000000e+00
-1.68250980898020e-01	1.49812702835400e+02	0.00000000000000e+00
ITEM: ATOMS id type x y z p1 p2 p3
101470 2 1.924e+02 1.120e+01 2.119e+01 0.89 0.11 0.00
101472 1 1.961e+02 1.091e+01 2.108e+01 0.91 0.09 0.00
101474 2 1.993e+02 1.083e+01 2.111e+01 0.93 0.07 0.00
101886 1 1.853e+02 1.854e+01 2.113e+01 0.90 0.10 0.00
101888 1 1.889e+02 1.838e+01 2.112e+01 0.90 0.10 0.00
101890 1 1.922e+02 1.847e+01 2.097e+01 0.91 0.09 0.00
101892 1 1.959e+02 1.849e+01 2.107e+01 0.91 0.09 0.00
101894 1 1.992e+02 1.840e+01 2.113e+01 0.90 0.10 0.00
101896 1 2.030e+02 1.822e+01 2.104e+01 0.90 0.10 0.00
102026 1 1.853e+02 2.098e+01 2.119e+01 0.89 0.11 0.00
102028 1 1.888e+02 2.096e+01 2.111e+01 0.90 0.10 0.00
102030 2 1.924e+02 2.109e+01 2.115e+01 0.91 0.09 0.00
102032 1 1.957e+02 2.091e+01 2.104e+01 0.90 0.10 0.00
102034 1 1.994e+02 2.087e+01 2.101e+01 0.90 0.10 0.00
102446 1 1.851e+02 2.833e+01 2.109e+01 0.91 0.09 0.00
102448 1 1.889e+02 2.838e+01 2.117e+01 0.92 0.08 0.00
102450 1 1.923e+02 2.854e+01 2.113e+01 0.93 0.07 0.00
102452 1 1.959e+02 2.857e+01 2.105e+01 0.92 0.08 0.00
102454 1 1.995e+02 2.830e+01 2.103e+01 0.91 0.09 0.00
102584 1 1.817e+02 3.088e+01 2.110e+01 0.92 0.08 0.00
102586 1 1.852e+02 3.085e+01 2.104e+01 0.91 0.09 0.00
102588 1 1.888e+02 3.095e+01 2.105e+01 0.91 0.09 0.00
102590 2 1.924e+02 3.101e+01 2.107e+01 0.94 0.06 0.00
102592 1 1.959e+02 3.096e+01 2.113e+01 0.91 0.09 0.00
102870 1 1.922e+02 3.594e+01 2.113e+01 0.93 0.07 0.00
102872 1 1.959e+02 3.601e+01 2.123e+01 0.92 0.08 0.00
102874 1 1.993e+02 3.579e+01 2.120e+01 0.91 0.09 0.00
102876 1 2.028e+02 3.584e+01 2.115e+01 0.90 0.10 0.00
103010 1 1.924e+02 3.847e+01 2.108e+01 0.93 0.07 0.00
103012 1 1.959e+02 3.849e+01 2.122e+01 0.91 0.09 0.00
103014 1 1.993e+02 3.833e+01 2.118e+01 0.91 0.09 0.00
103016 1 2.029e+02 3.840e+01 2.109e+01 0.91 0.09 0.00
103136 1 1.675e+02 4.090e+01 2.115e+01 0.88 0.12 0.00
103276 1 1.678e+02 4.336e+01 2.111e+01 0.88 0.12 0.00
105254 1 1.995e+02 7.841e+01 2.096e+01 0.91 0.09 0.00
105256 1 2.028e+02 7.842e+01 2.095e+01 0.93 0.07 0.00
105376 1 1.675e+02 8.101e+01 2.097e+01 0.92 0.08 0.00
105516 2 1.676e+02 8.350e+01 2.109e+01 0.92 0.08 0.00
105518 1 1.711e+02 8.334e+01 2.098e+01 0.90 0.10 0.00
105650 1 1.570e+02 8.602e+01 2.114e+01 0.89 0.11 0.00
105652 1 1.606e+02 8.601e+01 2.104e+01 0.88 0.12 0.00
105654 1 1.643e+02 8.597e+01 2.112e+01 0.89 0.11 0.00
105674 2 1.994e+02 8.581e+01 2.111e+01 0.92 0.08 0.00
105676 1 2.030e+02 8.591e+01 2.100e+01 0.91 0.09 0.00
105790 1 1.569e+02 8.849e+01 2.100e+01 0.88 0.12 0.00
105792 1 1.606e+02 8.854e+01 2.088e+01 0.88 0.12 0.00
105794 1 1.641e+02 8.845e+01 2.111e+01 0.90 0.10 0.00
105810 1 1.923e+02 8.843e+01 2.099e+01 0.92 0.08 0.00
105812 1 1.958e+02 8.850e+01 2.111e+01 0.92 0.08 0.00
105814 1 1.993e+02 8.838e+01 2.113e+01 0.92 0.08 0.00
105816 1 2.029e+02 8.832e+01 2.115e+01 0.92 0.08 0.00
107738 1 1.357e+02 1.234e+02 2.109e+01 0.90 0.10 0.00
108154 1 1.288e+02 1.309e+02 2.105e+01 0.89 0.11 0.00
108156 1 1.321e+02 1.308e+02 2.108e+01 0.89 0.11 0.00
108158 2 1.357e+02 1.311e+02 2.102e+01 0.90 0.10 0.00
108160 1 1.393e+02 1.308e+02 2.095e+01 0.88 0.12 0.00
108162 1 1.428e+02 1.308e+02 2.106e+01 0.89 0.11 0.00
108294 1 1.287e+02 1.333e+02 2.107e+01 0.89 0.11 0.00
108296 1 1.321e+02 1.333e+02 2.109e+01 0.88 0.12 0.00
108298 1 1.358e+02 1.334e+02 2.101e+01 0.89 0.11 0.00
108300 1 1.392e+02 1.333e+02 2.109e+01 0.88 0.12 0.00
108302 1 1.429e+02 1.334e+02 2.105e+01 0.88 0.12 0.00
109700 1 1.394e+02 1.584e+02 2.107e+01 0.89 0.11 0.00
109832 1 1.253e+02 1.609e+02 2.100e+01 0.90 0.10 0.00
109834 1 1.289e+02 1.608e+02 2.115e+01 0.90 0.10 0.00
109836 1 1.322e+02 1.609e+02 2.117e+01 0.90 0.10 0.00
109838 1 1.358e+02 1.609e+02 2.102e+01 0.90 0.10 0.00
109840 1 1.393e+02 1.609e+02 2.110e+01 0.90 0.10 0.00
109990 1 1.570e+02 1.634e+02 2.103e+01 0.91 0.09 0.00
109992 2 1.604e+02 1.634e+02 2.116e+01 0.92 0.08 0.00
109994 1 1.640e+02 1.634e+02 2.112e+01 0.92 0.08 0.00
110130 1 1.569e+02 1.659e+02 2.112e+01 0.90 0.10 0.00
110132 1 1.605e+02 1.658e+02 2.113e+01 0.91 0.09 0.00
110134 1 1.640e+02 1.659e+02 2.103e+01 0.92 0.08 0.00
110252 1 1.252e+02 1.684e+02 2.093e+01 0.90 0.10 0.00
110254 1 1.288e+02 1.684e+02 2.107e+01 0.92 0.08 0.00
110256 1 1.322e+02 1.684e+02 2.110e+01 0.92 0.08 0.00
110410 1 1.570e+02 1.709e+02 2.108e+01 0.91 0.09 0.00
110412 1 1.604e+02 1.708e+02 2.099e+01 0.91 0.09 0.00
110414 1 1.639e+02 1.708e+02 2.106e+01 0.91 0.09 0.00
110548 1 1.534e+02 1.734e+02 2.112e+01 0.90 0.10 0.00
110550 1 1.568e+02 1.733e+02 2.100e+01 0.89 0.11 0.00
110552 1 1.605e+02 1.734e+02 2.103e+01 0.89 0.11 0.00
110554 1 1.641e+02 1.733e+02 2.100e+01 0.90 0.10 0.00
110672 1 1.252e+02 1.759e+02 2.113e+01 0.93 0.07 0.00
110674 1 1.288e+02 1.759e+02 2.100e+01 0.92 0.08 0.00
110676 2 1.322e+02 1.759e+02 2.100e+01 0.92 0.08 0.00
110812 1 1.252e+02 1.783e+02 2.113e+01 0.93 0.07 0.00
111520 1 1.393e+02 1.909e+02 2.100e+01 0.92 0.08 0.00
111522 1 1.428e+02 1.909e+02 2.101e+01 0.90 0.10 0.00
111530 1 1.571e+02 1.909e+02 2.113e+01 0.90 0.10 0.00
111532 1 1.606e+02 1.908e+02 2.123e+01 0.90 0.10 0.00
111940 1 1.393e+02 1.982e+02 2.107e+01 0.92 0.08 0.00
111942 1 1.429e+02 1.983e+02 2.108e+01 0.91 0.09 0.00
111944 1 1.464e+02 1.982e+02 2.114e+01 0.91 0.09 0.00
111946 1 1.498e+02 1.983e+02 2.114e+01 0.91 0.09 0.00
111948 1 1.535e+02 1.983e+02 2.118e+01 0.90 0.10 0.00
112080 1 1.393e+02 2.007e+02 2.111e+01 0.92 0.08 0.00
112082 1 1.429e+02 2.007e+02 2.102e+01 0.91 0.09 0.00
112084 1 1.464e+02 2.007e+02 2.113e+01 0.90 0.10 0.00
112086 1 1.499e+02 2.008e+02 2.117e+01 0.91 0.09 0.00
112088 1 1.534e+02 2.008e+02 2.109e+01 0.93 0.07 0.00
112498 1 1.355e+02 2.084e+02 2.111e+01 0.90 0.10 0.00
112500 1 1.391e+02 2.084e+02 2.105e+01 0.90 0.10 0.00
112502 1 1.428e+02 2.083e+02 2.100e+01 0.89 0.11 0.00
112504 2 1.462e+02 2.083e+02 2.103e+01 0.88 0.12 0.00
112506 1 1.500e+02 2.083e+02 2.112e+01 0.89 0.11 0.00
112638 1 1.357e+02 2.109e+02 2.115e+01 0.92 0.08 0.00
112640 1 1.392e+02 2.110e+02 2.119e+01 0.90 0.10 0.00
112642 1 1.427e+02 2.108e+02 2.116e+01 0.89 0.11 0.00
112644 1 1.463e+02 2.107e+02 2.102e+01 0.89 0.11 0.00
112646 1 1.498e+02 2.108e+02 2.110e+01 0.88 0.12 0.00
112918 1 1.358e+02 2.159e+02 2.113e+01 0.92 0.08 0.00
112920 1 1.392e+02 2.158e+02 2.111e+01 0.91 0.09 0.00
112922 1 1.428e+02 2.159e+02 2.118e+01 0.89 0.11 0.00
112924 1 1.463e+02 2.158e+02 2.113e+01 0.87 0.13 0.00
112926 1 1.499e+02 2.158e+02 2.127e+01 0.87 0.13 0.00
113058 1 1.357e+02 2.183e+02 2.112e+01 0.92 0.08 0.00
113060 1 1.393e+02 2.182e+02 2.109e+01 0.90 0.10 0.00
113062 1 1.428e+02 2.184e+02 2.109e+01 0.88 0.12 0.00
113064 1 1.464e+02 2.183e+02 2.108e+01 0.87 0.13 0.00
113066 1 1.499e+02 2.183e+02 2.116e+01 0.88 0.12 0.00
114065 1 1.836e+02 9.701e+00 2.248e+01 0.91 0.09 0.00
114066 2 1.852e+02 1.103e+01 2.374e+01 0.91 0.09 0.00
114068 1 1.887e+02 1.107e+01 2.357e+01 0.90 0.10 0.00
114072 1 1.959e+02 1.089e+01 2.361e+01 0.91 0.09 0.00
114073 1 1.977e+02 9.622e+00 2.241e+01 0.92 0.08 0.00
114075 1 2.013e+02 9.629e+00 2.231e+01 0.92 0.08 0.00
114076 1 2.029e+02 1.096e+01 2.358e+01 0.93 0.07 0.00
114205 1 1.834e+02 1.225e+01 2.249e+01 0.90 0.10 0.00
114207 1 1.870e+02 1.236e+01 2.243e+01 0.91 0.09 0.00
114209 1 1.905e+02 1.223e+01 2.235e+01 0.90 0.10 0.00
114217 1 2.047e+02 1.215e+01 2.229e+01 0.93 0.07 0.00
114335 1 1.658e+02 1.486e+01 2.235e+01 0.89 0.11 0.00
114486 1 1.852e+02 1.840e+01 2.375e+01 0.90 0.10 0.00
114488 1 1.888e+02 1.836e+01 2.368e+01 0.91 0.09 0.00
114490 1 1.924e+02 1.854e+01 2.354e+01 0.92 0.08 0.00
114492 1 1.959e+02 1.850e+01 2.351e+01 0.91 0.09 0.00
114494 1 1.994e+02 1.841e+01 2.356e+01 0.91 0.09 0.00
114625 1 1.835e+02 1.960e+01 2.233e+01 0.90 0.10 0.00
114626 1 1.851e+02 2.081e+01 2.366e+01 0.91 0.09 0.00
114627 1 1.870e+02 1.972e+01 2.240e+01 0.90 0.10 0.00
114628 1 1.888e+02 2.102e+01 2.361e+01 0.91 0.09 0.00
114629 1 1.906e+02 1.970e+01 2.240e+01 0.90 0.10 0.00
114630 1 1.924e+02 2.106e+01 2.350e+01 0.92 0.08 0.00
114631 1 1.941e+02 1.974e+01 2.231e+01 0.91 0.09 0.00
114632 1 1.958e+02 2.100e+01 2.356e+01 0.91 0.09 0.00
114633 1 1.976e+02 1.982e+01 2.225e+01 0.90 0.10 0.00
114634 1 1.995e+02 2.088e+01 2.355e+01 0.92 0.08 0.00
114635 1 2.011e+02 1.960e+01 2.240e+01 0.91 0.09 0.00
114765 1 1.834e+02 2.212e+01 2.243e+01 0.91 0.09 0.00
114767 1 1.871e+02 2.219e+01 2.239e+01 0.91 0.09 0.00
114771 1 1.941e+02 2.219e+01 2.231e+01 0.91 0.09 0.00
115044 1 1.818e+02 2.853e+01 2.361e+01 0.92 0.08 0.00
115045 1 1.834e+02 2.717e+01 2.234e+01 0.92 0.08 0.00
115046 1 1.852e+02 2.833e+01 2.361e+01 0.92 0.08 0.00
115047 1 1.870e+02 2.715e+01 2.241e+01 0.91 0.09 0.00
115048 1 1.887e+02 2.847e+01 2.362e+01 0.92 0.08 0.00
115049 1 1.907e+02 2.722e+01 2.241e+01 0.93 0.07 0.00
115050 1 1.924e+02 2.843e+01 2.364e+01 0.93 0.07 0.00
115051 2 1.941e+02 2.721e+01 2.226e+01 0.93 0.07 0.00
115052 1 1.959e+02 2.849e+01 2.362e+01 0.93 0.07 0.00
115054 1 1.993e+02 2.846e+01 2.350e+01 0.91 0.09 0.00
115055 1 2.012e+02 2.708e+01 2.239e+01 0.90 0.10 0.00
115183 1 1.799e+02 2.975e+01 2.241e+01 0.92 0.08 0.00
115184 1 1.817e+02 3.108e+01 2.351e+01 0.92 0.08 0.00
115185 1 1.835e+02 2.961e+01 2.239e+01 0.91 0.09 0.00
115186 1 1.852e+02 3.090e+01 2.356e+01 0.91 0.09 0.00
115187 1 1.868e+02 2.957e+01 2.226e+01 0.91 0.09 0.00
115188 1 1.886e+02 3.086e+01 2.350e+01 0.92 0.08 0.00
115189 1 1.906e+02 2.971e+01 2.244e+01 0.92 0.08 0.00
115190 1 1.924e+02 3.107e+01 2.356e+01 0.93 0.07 0.00
115191 1 1.941e+02 2.962e+01 2.233e+01 0.92 0.08 0.00
115192 1 1.958e+02 3.091e+01 2.367e+01 0.92 0.08 0.00
115470 1 1.923e+02 3.603e+01 2.353e+01 0.93 0.07 0.00
115472 1 1.958e+02 3.582e+01 2.368e+01 0.92 0.08 0.00
115474 1 1.994e+02 3.590e+01 2.368e+01 0.92 0.08 0.00
115476 1 2.028e+02 3.586e+01 2.372e+01 0.91 0.09 0.00
115609 2 1.904e+02 3.708e+01 2.227e+01 0.94 0.06 0.00
115610 2 1.923e+02 3.848e+01 2.349e+01 0.93 0.07 0.00
115611 1 1.941e+02 3.715e+01 2.233e+01 0.92 0.08 0.00
115612 1 1.960e+02 3.848e+01 2.366e+01 0.92 0.08 0.00
115613 1 1.977e+02 3.715e+01 2.248e+01 0.92 0.08 0.00
115614 1 1.993e+02 3.841e+01 2.373e+01 0.91 0.09 0.00
115615 2 2.010e+02 3.705e+01 2.242e+01 0.91 0.09 0.00
115616 1 2.027e+02 3.837e+01 2.356e+01 0.91 0.09 0.00
115617 1 2.046e+02 3.716e+01 2.240e+01 0.91 0.09 0.00
115736 1 1.677e+02 4.089e+01 2.374e+01 0.88 0.12 0.00
115749 1 1.906e+02 3.972e+01 2.223e+01 0.93 0.07 0.00
115751 1 1.940e+02 3.962e+01 2.241e+01 0.92 0.08 0.00
115753 1 1.977e+02 3.975e+01 2.239e+01 0.91 0.09 0.00
115755 1 2.010e+02 3.962e+01 2.234e+01 0.92 0.08 0.00
115757 1 2.047e+02 3.972e+01 2.241e+01 0.92 0.08 0.00
115875 1 1.659e+02 4.223e+01 2.230e+01 0.89 0.11 0.00
115876 1 1.677e+02 4.348e+01 2.357e+01 0.89 0.11 0.00
117978 1 1.711e+02 8.091e+01 2.345e+01 0.91 0.09 0.00
117995 1 2.011e+02 7.967e+01 2.229e+01 0.93 0.07 0.00
117997 1 2.047e+02 7.957e+01 2.225e+01 0.93 0.07 0.00
118115 1 1.659e+02 8.232e+01 2.240e+01 0.91 0.09 0.00
118119 1 1.729e+02 8.229e+01 2.221e+01 0.92 0.08 0.00
118257 1 1.694e+02 8.469e+01 2.234e+01 0.91 0.09 0.00
118274 1 1.994e+02 8.593e+01 2.356e+01 0.93 0.07 0.00
118276 1 2.030e+02 8.589e+01 2.357e+01 0.91 0.09 0.00
118391 2 1.589e+02 8.727e+01 2.218e+01 0.89 0.11 0.00
118394 1 1.641e+02 8.839e+01 2.359e+01 0.89 0.11 0.00
118410 1 1.922e+02 8.836e+01 2.351e+01 0.93 0.07 0.00
118411 1 1.941e+02 8.714e+01 2.229e+01 0.93 0.07 0.00
118412 1 1.958e+02 8.845e+01 2.353e+01 0.94 0.06 0.00
118413 1 1.976e+02 8.723e+01 2.249e+01 0.92 0.08 0.00
118414 1 1.995e+02 8.842e+01 2.360e+01 0.92 0.08 0.00
118415 1 2.013e+02 8.715e+01 2.228e+01 0.92 0.08 0.00
118416 1 2.031e+02 8.845e+01 2.360e+01 0.92 0.08 0.00
118417 1 2.047e+02 8.712e+01 2.233e+01 0.91 0.09 0.00
118551 1 1.941e+02 8.967e+01 2.225e+01 0.92 0.08 0.00
118555 1 2.013e+02 8.959e+01 2.234e+01 0.92 0.08 0.00
120334 1 1.286e+02 1.235e+02 2.365e+01 0.90 0.10 0.00
120335 1 1.305e+02 1.221e+02 2.227e+01 0.91 0.09 0.00
120337 2 1.339e+02 1.222e+02 2.223e+01 0.91 0.09 0.00
120339 1 1.374e+02 1.221e+02 2.236e+01 0.89 0.11 0.00
120340 1 1.393e+02 1.233e+02 2.342e+01 0.90 0.10 0.00
120342 1 1.429e+02 1.234e+02 2.355e+01 0.88 0.12 0.00
120471 1 1.234e+02 1.247e+02 2.213e+01 0.90 0.10 0.00
120473 1 1.270e+02 1.247e+02 2.226e+01 0.90 0.10 0.00
120475 1 1.304e+02 1.246e+02 2.237e+01 0.91 0.09 0.00
120481 1 1.411e+02 1.246e+02 2.236e+01 0.89 0.11 0.00
120483 1 1.447e+02 1.247e+02 2.226e+01 0.88 0.12 0.00
120754 2 1.288e+02 1.307e+02 2.365e+01 0.89 0.11 0.00
120756 1 1.322e+02 1.308e+02 2.359e+01 0.89 0.11 0.00
120758 1 1.358e+02 1.309e+02 2.350e+01 0.90 0.10 0.00
120760 2 1.394e+02 1.310e+02 2.352e+01 0.89 0.11 0.00
120893 2 1.270e+02 1.322e+02 2.225e+01 0.89 0.11 0.00
120894 1 1.288e+02 1.334e+02 2.361e+01 0.89 0.11 0.00
120895 1 1.305e+02 1.321e+02 2.234e+01 0.89 0.11 0.00
120896 1 1.322e+02 1.334e+02 2.366e+01 0.89 0.11 0.00
120897 1 1.340e+02 1.322e+02 2.235e+01 0.89 0.11 0.00
120898 1 1.358e+02 1.334e+02 2.353e+01 0.89 0.11 0.00
120899 1 1.376e+02 1.322e+02 2.225e+01 0.89 0.11 0.00
120900 1 1.393e+02 1.334e+02 2.360e+01 0.88 0.12 0.00
120901 1 1.411e+02 1.321e+02 2.236e+01 0.89 0.11 0.00
121033 1 1.269e+02 1.346e+02 2.231e+01 0.90 0.10 0.00
121035 1 1.304e+02 1.346e+02 2.233e+01 0.89 0.11 0.00
121037 1 1.340e+02 1.346e+02 2.238e+01 0.90 0.10 0.00
122294 1 1.286e+02 1.583e+02 2.364e+01 0.87 0.13 0.00
122295 1 1.305e+02 1.572e+02 2.237e+01 0.87 0.13 0.00
122297 1 1.340e+02 1.572e+02 2.220e+01 0.89 0.11 0.00
122298 1 1.357e+02 1.584e+02 2.349e+01 0.89 0.11 0.00
122299 1 1.376e+02 1.572e+02 2.218e+01 0.90 0.10 0.00
122433 1 1.271e+02 1.597e+02 2.234e+01 0.88 0.12 0.00
122435 1 1.306e+02 1.597e+02 2.238e+01 0.89 0.11 0.00
122441 1 1.411e+02 1.597e+02 2.232e+01 0.89 0.11 0.00
122590 1 1.570e+02 1.634e+02 2.360e+01 0.90 0.10 0.00
122591 1 1.588e+02 1.621e+02 2.226e+01 0.91 0.09 0.00
122592 1 1.606e+02 1.635e+02 2.359e+01 0.92 0.08 0.00
122593 1 1.623e+02 1.622e+02 2.243e+01 0.93 0.07 0.00
122594 1 1.640e+02 1.635e+02 2.368e+01 0.93 0.07 0.00
122729 2 1.553e+02 1.645e+02 2.229e+01 0.90 0.10 0.00
122730 1 1.569e+02 1.659e+02 2.359e+01 0.90 0.10 0.00
122731 1 1.587e+02 1.647e+02 2.237e+01 0.91 0.09 0.00
122732 1 1.605e+02 1.659e+02 2.360e+01 0.91 0.09 0.00
122733 1 1.622e+02 1.646e+02 2.230e+01 0.92 0.08 0.00
122734 1 1.640e+02 1.659e+02 2.361e+01 0.92 0.08 0.00
122851 1 1.235e+02 1.671e+02 2.229e+01 0.89 0.11 0.00
122852 1 1.253e+02 1.685e+02 2.348e+01 0.90 0.10 0.00
122853 1 1.270e+02 1.671e+02 2.231e+01 0.89 0.11 0.00
122854 1 1.287e+02 1.686e+02 2.353e+01 0.91 0.09 0.00
122855 1 1.304e+02 1.673e+02 2.227e+01 0.93 0.07 0.00
122991 1 1.235e+02 1.697e+02 2.222e+01 0.90 0.10 0.00
122993 1 1.269e+02 1.696e+02 2.230e+01 0.91 0.09 0.00
122995 1 1.305e+02 1.697e+02 2.214e+01 0.93 0.07 0.00
123008 1 1.533e+02 1.709e+02 2.353e+01 0.90 0.10 0.00
123010 1 1.569e+02 1.708e+02 2.353e+01 0.90 0.10 0.00
123012 1 1.605e+02 1.709e+02 2.357e+01 0.91 0.09 0.00
123014 1 1.639e+02 1.708e+02 2.347e+01 0.91 0.09 0.00
123148 1 1.534e+02 1.733e+02 2.362e+01 0.91 0.09 0.00
123149 1 1.552e+02 1.721e+02 2.227e+01 0.90 0.10 0.00
123150 1 1.569e+02 1.733e+02 2.361e+01 0.91 0.09 0.00
123151 1 1.587e+02 1.722e+02 2.231e+01 0.91 0.09 0.00
123152 1 1.605e+02 1.735e+02 2.359e+01 0.93 0.07 0.00
123153 1 1.622e+02 1.721e+02 2.229e+01 0.91 0.09 0.00
123154 1 1.640e+02 1.734e+02 2.349e+01 0.91 0.09 0.00
123272 1 1.251e+02 1.760e+02 2.363e+01 0.92 0.08 0.00
123274 1 1.287e+02 1.758e+02 2.367e+01 0.92 0.08 0.00
123287 1 1.517e+02 1.746e+02 2.228e+01 0.90 0.10 0.00
123289 1 1.553e+02 1.746e+02 2.238e+01 0.90 0.10 0.00
123291 1 1.587e+02 1.746e+02 2.230e+01 0.91 0.09 0.00
123293 1 1.622e+02 1.747e+02 2.225e+01 0.92 0.08 0.00
123412 1 1.252e+02 1.785e+02 2.360e+01 0.92 0.08 0.00
123413 1 1.270e+02 1.772e+02 2.242e+01 0.92 0.08 0.00
123553 1 1.268e+02 1.796e+02 2.228e+01 0.92 0.08 0.00
124120 1 1.393e+02 1.909e+02 2.344e+01 0.91 0.09 0.00
124123 1 1.446e+02 1.896e+02 2.235e+01 0.90 0.10 0.00
124124 1 1.465e+02 1.909e+02 2.346e+01 0.89 0.11 0.00
124125 1 1.481e+02 1.897e+02 2.226e+01 0.91 0.09 0.00
124126 1 1.499e+02 1.909e+02 2.360e+01 0.89 0.11 0.00
124128 1 1.535e+02 1.908e+02 2.358e+01 0.90 0.10 0.00
124263 1 1.447e+02 1.921e+02 2.238e+01 0.90 0.10 0.00
124267 1 1.516e+02 1.920e+02 2.225e+01 0.90 0.10 0.00
124271 1 1.588e+02 1.921e+02 2.260e+01 0.90 0.10 0.00
124540 1 1.393e+02 1.985e+02 2.364e+01 0.91 0.09 0.00
124542 2 1.428e+02 1.982e+02 2.367e+01 0.90 0.10 0.00
124544 1 1.464e+02 1.983e+02 2.373e+01 0.90 0.10 0.00
124546 1 1.500e+02 1.983e+02 2.369e+01 0.90 0.10 0.00
124548 1 1.534e+02 1.982e+02 2.369e+01 0.90 0.10 0.00
124679 1 1.375e+02 1.996e+02 2.235e+01 0.91 0.09 0.00
124680 1 1.393e+02 2.009e+02 2.362e+01 0.92 0.08 0.00
124681 1 1.411e+02 1.996e+02 2.234e+01 0.92 0.08 0.00
124682 1 1.428e+02 2.008e+02 2.370e+01 0.90 0.10 0.00
124683 1 1.445e+02 1.996e+02 2.235e+01 0.90 0.10 0.00
124684 1 1.464e+02 2.008e+02 2.361e+01 0.89 0.11 0.00
124685 1 1.481e+02 1.995e+02 2.247e+01 0.89 0.11 0.00
124686 1 1.499e+02 2.008e+02 2.362e+01 0.89 0.11 0.00
124687 1 1.517e+02 1.995e+02 2.230e+01 0.91 0.09 0.00
124688 1 1.533e+02 2.008e+02 2.364e+01 0.91 0.09 0.00
124689 1 1.551e+02 1.996e+02 2.246e+01 0.91 0.09 0.00
124819 1 1.375e+02 2.021e+02 2.234e+01 0.92 0.08 0.00
124821 1 1.411e+02 2.020e+02 2.233e+01 0.90 0.10 0.00
124823 1 1.445e+02 2.021e+02 2.235e+01 0.90 0.10 0.00
124825 2 1.481e+02 2.019e+02 2.244e+01 0.89 0.11 0.00
124827 1 1.516e+02 2.020e+02 2.232e+01 0.90 0.10 0.00
125097 1 1.339e+02 2.071e+02 2.239e+01 0.90 0.10 0.00
125098 1 1.355e+02 2.084e+02 2.372e+01 0.91 0.09 0.00
125099 1 1.374e+02 2.072e+02 2.230e+01 0.91 0.09 0.00
125100 1 1.392e+02 2.083e+02 2.349e+01 0.91 0.09 0.00
125101 1 1.410e+02 2.071e+02 2.239e+01 0.90 0.10 0.00
125102 1 1.427e+02 2.085e+02 2.371e+01 0.88 0.12 0.00
125103 1 1.444e+02 2.071e+02 2.239e+01 0.88 0.12 0.00
125104 1 1.464e+02 2.083e+02 2.353e+01 0.87 0.13 0.00
125106 1 1.500e+02 2.084e+02 2.352e+01 0.88 0.12 0.00
125235 1 1.303e+02 2.096e+02 2.226e+01 0.91 0.09 0.00
125236 1 1.321e+02 2.109e+02 2.347e+01 0.92 0.08 0.00
125237 1 1.339e+02 2.097e+02 2.225e+01 0.90 0.10 0.00
125238 1 1.356e+02 2.109e+02 2.360e+01 0.92 0.08 0.00
125239 1 1.375e+02 2.097e+02 2.239e+01 0.91 0.09 0.00
125240 1 1.392e+02 2.109e+02 2.360e+01 0.91 0.09 0.00
125241 1 1.409e+02 2.095e+02 2.231e+01 0.90 0.10 0.00
125242 1 1.428e+02 2.109e+02 2.362e+01 0.89 0.11 0.00
125243 1 1.446e+02 2.096e+02 2.237e+01 0.88 0.12 0.00
125244 1 1.464e+02 2.108e+02 2.350e+01 0.87 0.13 0.00
125245 2 1.481e+02 2.095e+02 2.225e+01 0.87 0.13 0.00
125518 1 1.357e+02 2.158e+02 2.371e+01 0.93 0.07 0.00
125520 1 1.393e+02 2.159e+02 2.352e+01 0.91 0.09 0.00
125522 1 1.428e+02 2.158e+02 2.364e+01 0.89 0.11 0.00
125524 1 1.463e+02 2.158e+02 2.354e+01 0.87 0.13 0.00
125526 1 1.499e+02 2.158e+02 2.365e+01 0.87 0.13 0.00
125657 1 1.341e+02 2.172e+02 2.243e+01 0.93 0.07 0.00
125658 1 1.358e+02 2.184e+02 2.361e+01 0.92 0.08 0.00
125659 1 1.375e+02 2.171e+02 2.236e+01 0.91 0.09 0.00
125660 1 1.393e+02 2.184e+02 2.373e+01 0.91 0.09 0.00
125661 1 1.410e+02 2.171e+02 2.242e+01 0.90 0.10 0.00
125662 1 1.427e+02 2.184e+02 2.362e+01 0.89 0.11 0.00
125663 1 1.446e+02 2.170e+02 2.228e+01 0.89 0.11 0.00
125664 1 1.465e+02 2.183e+02 2.357e+01 0.87 0.13 0.00
125665 1 1.481e+02 2.169e+02 2.246e+01 0.87 0.13 0.00
125666 1 1.498e+02 2.183e+02 2.370e+01 0.87 0.13 0.00
125795 1 1.306e+02 2.195e+02 2.235e+01 0.92 0.08 0.00
125797 1 1.341e+02 2.197e+02 2.240e+01 0.92 0.08 0.00
125799 1 1.376e+02 2.196e+02 2.248e+01 0.91 0.09 0.00
125801 1 1.409e+02 2.196e+02 2.231e+01 0.89 0.11 0.00
125803 1 1.445e+02 2.195e+02 2.234e+01 0.90 0.10 0.00
125805 2 1.482e+02 2.196e+02 2.231e+01 0.89 0.11 0.00
126065 1 1.128e+02 2.246e+02 2.499e+01 0.89 0.11 0.00
126067 1 1.162e+02 2.246e+02 2.496e+01 0.91 0.09 0.00
126077 2 1.339e+02 2.245e+02 2.489e+01 0.91 0.09 0.00
126083 1 1.445e+02 2.245e+02 2.490e+01 0.91 0.09 0.00
126110 1 1.922e+02 1.008e+00 2.619e+01 0.91 0.09 0.00
126112 1 1.957e+02 1.016e+00 2.613e+01 0.90 0.10 0.00
126113 1 1.976e+02 -2.372e-01 2.483e+01 0.91 0.09 0.00
126114 1 1.994e+02 1.050e+00 2.606e+01 0.92 0.08 0.00
126116 1 2.029e+02 1.008e+00 2.611e+01 0.92 0.08 0.00
126117 1 2.047e+02 -2.666e-01 2.487e+01 0.91 0.09 0.00
126250 1 1.924e+02 3.686e+00 2.615e+01 0.90 0.10 0.00
126251 1 1.941e+02 2.133e+00 2.494e+01 0.91 0.09 0.00
126252 1 1.958e+02 3.494e+00 2.614e+01 0.91 0.09 0.00
126253 1 1.975e+02 2.140e+00 2.488e+01 0.91 0.09 0.00
126254 1 1.994e+02 3.456e+00 2.611e+01 0.91 0.09 0.00
126255 1 2.011e+02 2.252e+00 2.486e+01 0.93 0.07 0.00
126256 1 2.029e+02 3.492e+00 2.619e+01 0.92 0.08 0.00
126257 1 2.047e+02 2.196e+00 2.488e+01 0.91 0.09 0.00
126375 1 1.657e+02 4.769e+00 2.495e+01 0.91 0.09 0.00
126515 1 1.657e+02 7.293e+00 2.483e+01 0.92 0.08 0.00
126639 2 1.376e+02 9.643e+00 2.484e+01 0.89 0.11 0.00
126640 1 1.393e+02 1.107e+01 2.608e+01 0.90 0.10 0.00
126642 1 1.429e+02 1.098e+01 2.612e+01 0.88 0.12 0.00
126643 1 1.447e+02 9.711e+00 2.484e+01 0.89 0.11 0.00
126644 1 1.464e+02 1.102e+01 2.609e+01 0.88 0.12 0.00
126646 1 1.499e+02 1.106e+01 2.606e+01 0.90 0.10 0.00
126662 1 1.780e+02 1.082e+01 2.619e+01 0.90 0.10 0.00
126663 1 1.800e+02 9.667e+00 2.486e+01 0.90 0.10 0.00
126664 1 1.818e+02 1.096e+01 2.621e+01 0.90 0.10 0.00
126665 1 1.835e+02 9.641e+00 2.494e+01 0.90 0.10 0.00
126666 1 1.853e+02 1.104e+01 2.620e+01 0.90 0.10 0.00
126667 1 1.869e+02 9.742e+00 2.495e+01 0.90 0.10 0.00
126668 1 1.888e+02 1.107e+01 2.621e+01 0.91 0.09 0.00
126670 1 1.923e+02 1.100e+01 2.609e+01 0.89 0.11 0.00
126671 1 1.941e+02 9.768e+00 2.489e+01 0.90 0.10 0.00
126672 1 1.960e+02 1.103e+01 2.617e+01 0.92 0.08 0.00
126673 1 1.977e+02 9.770e+00 2.490e+01 0.92 0.08 0.00
126675 1 2.012e+02 9.757e+00 2.474e+01 0.92 0.08 0.00
126787 1 1.518e+02 1.221e+01 2.483e+01 0.90 0.10 0.00
126803 1 1.800e+02 1.213e+01 2.497e+01 0.90 0.10 0.00
126805 1 1.836e+02 1.224e+01 2.491e+01 0.91 0.09 0.00
126807 1 1.871e+02 1.231e+01 2.493e+01 0.90 0.10 0.00
126809 1 1.905e+02 1.215e+01 2.485e+01 0.90 0.10 0.00
126811 2 1.941e+02 1.211e+01 2.475e+01 0.91 0.09 0.00
126815 1 2.012e+02 1.212e+01 2.489e+01 0.92 0.08 0.00
127052 1 1.251e+02 1.835e+01 2.606e+01 0.89 0.11 0.00
127054 1 1.287e+02 1.832e+01 2.616e+01 0.91 0.09 0.00
127056 1 1.322e+02 1.851e+01 2.602e+01 0.89 0.11 0.00
127058 1 1.359e+02 1.832e+01 2.612e+01 0.87 0.13 0.00
127080 1 1.746e+02 1.840e+01 2.621e+01 0.91 0.09 0.00
127082 1 1.781e+02 1.848e+01 2.608e+01 0.92 0.08 0.00
127084 1 1.817e+02 1.853e+01 2.601e+01 0.91 0.09 0.00
127086 1 1.853e+02 1.850e+01 2.613e+01 0.92 0.08 0.00
127088 1 1.888e+02 1.851e+01 2.619e+01 0.92 0.08 0.00
127191 2 1.235e+02 1.973e+01 2.491e+01 0.89 0.11 0.00
127192 1 1.253e+02 2.095e+01 2.607e+01 0.89 0.11 0.00
127193 1 1.269e+02 1.963e+01 2.484e+01 0.91 0.09 0.00
127194 1 1.287e+02 2.080e+01 2.614e+01 0.91 0.09 0.00
127195 1 1.304e+02 1.960e+01 2.489e+01 0.91 0.09 0.00
127196 1 1.323e+02 2.097e+01 2.606e+01 0.89 0.11 0.00
127198 1 1.356e+02 2.086e+01 2.614e+01 0.87 0.13 0.00
127199 1 1.375e+02 1.971e+01 2.487e+01 0.88 0.12 0.00
127220 1 1.747e+02 2.098e+01 2.596e+01 0.91 0.09 0.00
127222 1 1.781e+02 2.092e+01 2.602e+01 0.91 0.09 0.00
127223 1 1.799e+02 1.965e+01 2.482e+01 0.92 0.08 0.00
127224 1 1.818e+02 2.097e+01 2.597e+01 0.92 0.08 0.00
127225 1 1.835e+02 1.969e+01 2.483e+01 0.90 0.10 0.00
127226 1 1.853e+02 2.116e+01 2.604e+01 0.93 0.07 0.00
127227 1 1.871e+02 1.971e+01 2.482e+01 0.92 0.08 0.00
127228 1 1.888e+02 2.102e+01 2.606e+01 0.92 0.08 0.00
127229 1 1.906e+02 1.973e+01 2.486e+01 0.92 0.08 0.00
127233 1 1.976e+02 1.961e+01 2.477e+01 0.92 0.08 0.00
127331 1 1.235e+02 2.215e+01 2.486e+01 0.89 0.11 0.00
127333 1 1.270e+02 2.211e+01 2.485e+01 0.90 0.10 0.00
127335 1 1.304e+02 2.211e+01 2.493e+01 0.89 0.11 0.00
127350 1 1.571e+02 2.346e+01 2.628e+01 0.91 0.09 0.00
127351 2 1.587e+02 2.230e+01 2.491e+01 0.91 0.09 0.00
127352 1 1.605e+02 2.356e+01 2.613e+01 0.91 0.09 0.00
127353 2 1.621e+02 2.231e+01 2.493e+01 0.91 0.09 0.00
127354 1 1.640e+02 2.354e+01 2.602e+01 0.92 0.08 0.00
127373 1 1.976e+02 2.207e+01 2.483e+01 0.92 0.08 0.00
127490 1 1.570e+02 2.606e+01 2.610e+01 0.92 0.08 0.00
127491 1 1.586e+02 2.475e+01 2.489e+01 0.91 0.09 0.00
127492 1 1.604e+02 2.604e+01 2.604e+01 0.90 0.10 0.00
127493 1 1.623e+02 2.478e+01 2.484e+01 0.91 0.09 0.00
127494 1 1.639e+02 2.596e+01 2.610e+01 0.92 0.08 0.00
127611 1 1.235e+02 2.703e+01 2.491e+01 0.88 0.12 0.00
127612 1 1.253e+02 2.853e+01 2.611e+01 0.90 0.10 0.00
127613 1 1.271e+02 2.707e+01 2.496e+01 0.89 0.11 0.00
127614 1 1.288e+02 2.843e+01 2.613e+01 0.89 0.11 0.00
127615 1 1.305e+02 2.709e+01 2.491e+01 0.89 0.11 0.00
127638 1 1.711e+02 2.839e+01 2.598e+01 0.90 0.10 0.00
127640 1 1.747e+02 2.850e+01 2.600e+01 0.90 0.10 0.00
127642 1 1.781e+02 2.845e+01 2.608e+01 0.91 0.09 0.00
127643 2 1.800e+02 2.731e+01 2.480e+01 0.92 0.08 0.00
127644 1 1.818e+02 2.859e+01 2.599e+01 0.93 0.07 0.00
127645 1 1.835e+02 2.713e+01 2.490e+01 0.93 0.07 0.00
127646 1 1.852e+02 2.837e+01 2.622e+01 0.93 0.07 0.00
127647 1 1.871e+02 2.718e+01 2.497e+01 0.93 0.07 0.00
127752 1 1.252e+02 3.097e+01 2.615e+01 0.88 0.12 0.00
127753 1 1.270e+02 2.966e+01 2.490e+01 0.90 0.10 0.00
127778 1 1.712e+02 3.097e+01 2.619e+01 0.93 0.07 0.00
127780 1 1.746e+02 3.097e+01 2.607e+01 0.91 0.09 0.00
127782 1 1.780e+02 3.097e+01 2.597e+01 0.91 0.09 0.00
127783 1 1.799e+02 2.978e+01 2.478e+01 0.92 0.08 0.00
127784 1 1.817e+02 3.100e+01 2.601e+01 0.91 0.09 0.00
127785 1 1.835e+02 2.975e+01 2.483e+01 0.92 0.08 0.00
127787 1 1.869e+02 2.966e+01 2.486e+01 0.92 0.08 0.00
127793 1 1.976e+02 2.971e+01 2.482e+01 0.92 0.08 0.00
127902 1 1.429e+02 3.333e+01 2.614e+01 0.90 0.10 0.00
127904 1 1.464e+02 3.332e+01 2.616e+01 0.91 0.09 0.00
127905 1 1.482e+02 3.213e+01 2.495e+01 0.90 0.10 0.00
127906 1 1.499e+02 3.348e+01 2.615e+01 0.91 0.09 0.00
127907 1 1.517e+02 3.217e+01 2.490e+01 0.90 0.10 0.00
127908 1 1.534e+02 3.342e+01 2.611e+01 0.91 0.09 0.00
127909 1 1.553e+02 3.226e+01 2.487e+01 0.93 0.07 0.00
127910 1 1.570e+02 3.348e+01 2.614e+01 0.93 0.07 0.00
127911 1 1.587e+02 3.229e+01 2.491e+01 0.93 0.07 0.00
127912 1 1.606e+02 3.349e+01 2.618e+01 0.93 0.07 0.00
127913 1 1.623e+02 3.228e+01 2.493e+01 0.91 0.09 0.00
127914 1 1.641e+02 3.335e+01 2.621e+01 0.92 0.08 0.00
128043 1 1.446e+02 3.480e+01 2.496e+01 0.90 0.10 0.00
128045 1 1.482e+02 3.467e+01 2.506e+01 0.91 0.09 0.00
128047 1 1.517e+02 3.467e+01 2.491e+01 0.91 0.09 0.00
128049 1 1.553e+02 3.476e+01 2.493e+01 0.92 0.08 0.00
128051 1 1.588e+02 3.481e+01 2.492e+01 0.93 0.07 0.00
128056 1 1.675e+02 3.598e+01 2.615e+01 0.89 0.11 0.00
128058 2 1.711e+02 3.606e+01 2.625e+01 0.91 0.09 0.00
128060 1 1.746e+02 3.603e+01 2.605e+01 0.88 0.12 0.00
128062 1 1.782e+02 3.595e+01 2.607e+01 0.89 0.11 0.00
128195 1 1.658e+02 3.718e+01 2.485e+01 0.90 0.10 0.00
128196 2 1.677e+02 3.834e+01 2.598e+01 0.89 0.11 0.00
128197 1 1.694e+02 3.710e+01 2.492e+01 0.90 0.10 0.00
128198 1 1.711e+02 3.852e+01 2.615e+01 0.90 0.10 0.00
128199 1 1.728e+02 3.718e+01 2.492e+01 0.88 0.12 0.00
128200 1 1.747e+02 3.848e+01 2.621e+01 0.88 0.12 0.00
128202 1 1.782e+02 3.837e+01 2.604e+01 0.89 0.11 0.00
128203 1 1.799e+02 3.709e+01 2.485e+01 0.90 0.10 0.00
128209 1 1.905e+02 3.715e+01 2.479e+01 0.93 0.07 0.00
128316 1 1.322e+02 4.093e+01 2.614e+01 0.88 0.12 0.00
128318 1 1.358e+02 4.096e+01 2.621e+01 0.90 0.10 0.00
128320 1 1.393e+02 4.110e+01 2.628e+01 0.90 0.10 0.00
128322 1 1.428e+02 4.099e+01 2.628e+01 0.89 0.11 0.00
128335 1 1.660e+02 3.972e+01 2.483e+01 0.89 0.11 0.00
128337 1 1.693e+02 3.964e+01 2.487e+01 0.88 0.12 0.00
128339 1 1.728e+02 3.968e+01 2.497e+01 0.89 0.11 0.00
128341 1 1.764e+02 3.974e+01 2.488e+01 0.89 0.11 0.00
128349 1 1.905e+02 3.963e+01 2.483e+01 0.92 0.08 0.00
128351 1 1.940e+02 3.968e+01 2.477e+01 0.92 0.08 0.00
128354 1 1.993e+02 4.099e+01 2.609e+01 0.91 0.09 0.00
128356 1 2.029e+02 4.097e+01 2.617e+01 0.91 0.09 0.00
128454 1 1.287e+02 4.341e+01 2.621e+01 0.90 0.10 0.00
128456 2 1.322e+02 4.346e+01 2.613e+01 0.90 0.10 0.00
128457 1 1.340e+02 4.207e+01 2.484e+01 0.89 0.11 0.00
128458 1 1.358e+02 4.345e+01 2.614e+01 0.90 0.10 0.00
128459 1 1.376e+02 4.220e+01 2.490e+01 0.90 0.10 0.00
128460 1 1.394e+02 4.348e+01 2.622e+01 0.91 0.09 0.00
128461 1 1.411e+02 4.218e+01 2.501e+01 0.90 0.10 0.00
128462 1 1.429e+02 4.341e+01 2.617e+01 0.90 0.10 0.00
128463 1 1.447e+02 4.220e+01 2.502e+01 0.89 0.11 0.00
128490 1 1.923e+02 4.338e+01 2.611e+01 0.92 0.08 0.00
128492 1 1.958e+02 4.345e+01 2.613e+01 0.91 0.09 0.00
128494 1 1.993e+02 4.345e+01 2.613e+01 0.91 0.09 0.00
128496 2 2.029e+02 4.353e+01 2.616e+01 0.93 0.07 0.00
128497 1 2.045e+02 4.211e+01 2.491e+01 0.92 0.08 0.00
128592 1 1.252e+02 4.602e+01 2.625e+01 0.90 0.10 0.00
128595 1 1.304e+02 4.462e+01 2.499e+01 0.90 0.10 0.00
128597 1 1.339e+02 4.459e+01 2.488e+01 0.90 0.10 0.00
128599 1 1.375e+02 4.467e+01 2.489e+01 0.90 0.10 0.00
128603 1 1.446e+02 4.469e+01 2.489e+01 0.90 0.10 0.00
128615 1 1.658e+02 4.472e+01 2.483e+01 0.88 0.12 0.00
128616 1 1.676e+02 4.597e+01 2.623e+01 0.89 0.11 0.00
128617 1 1.694e+02 4.469e+01 2.496e+01 0.87 0.13 0.00
128631 1 1.940e+02 4.464e+01 2.491e+01 0.92 0.08 0.00
128637 1 2.046e+02 4.461e+01 2.494e+01 0.92 0.08 0.00
128731 1 1.234e+02 4.722e+01 2.491e+01 0.88 0.12 0.00
128755 1 1.658e+02 4.715e+01 2.491e+01 0.87 0.13 0.00
128756 2 1.675e+02 4.838e+01 2.619e+01 0.88 0.12 0.00
128757 1 1.693e+02 4.711e+01 2.492e+01 0.88 0.12 0.00
128883 1 1.447e+02 4.968e+01 2.492e+01 0.91 0.09 0.00
128884 1 1.464e+02 5.100e+01 2.600e+01 0.90 0.10 0.00
128885 1 1.481e+02 4.972e+01 2.484e+01 0.89 0.11 0.00
128886 1 1.499e+02 5.099e+01 2.599e+01 0.89 0.11 0.00
128887 1 1.517e+02 4.970e+01 2.496e+01 0.88 0.12 0.00
128888 1 1.534e+02 5.089e+01 2.615e+01 0.89 0.11 0.00
128889 1 1.552e+02 4.980e+01 2.491e+01 0.89 0.11 0.00
128890 2 1.570e+02 5.112e+01 2.607e+01 0.90 0.10 0.00
128891 1 1.588e+02 4.966e+01 2.486e+01 0.89 0.11 0.00
128906 1 1.853e+02 5.091e+01 2.620e+01 0.92 0.08 0.00