ITEM: TIMESTEP
0
ITEM: NUMBER OF ATOMS
10032
ITEM: BOX BOUNDS pp pp pp
-0.0780352915 47.7392658524
-0.078181626 47.8883360101
-0.0806909124 49.1992506155
ITEM: ATOMS id type x y z
8782 3 1.7838316773 3.7292971835 2.0965275492
9926 2 3.0294869844 1.5338462089 2.1249757148
9920 2 0.5537855277 1.6343618797 2.0225083483
9921 2 1.802126433 2.2532921263 0.083959439
9924 1 0.5744266463 0.1334817939 -0.0132829233
8788 1 4.2910758066 3.7181907285 2.1061589479
8794 1 6.7925409802 3.7052810737 2.0440471644
9932 3 5.5789481108 1.4565070083 2.112383904
1151 1 4.2582988087 0.8348296852 4.1397544263
9933 3 6.8292415657 2.1495577477 0.0916744936
8800 3 9.2866716923 3.7257837868 2.0932766058
9938 2 8.1022449741 1.4698839945 2.1420723537
9944 3 10.5175526655 1.5762789745 2.1148556172
9939 1 9.3588544024 2.2847900144 0.0112818606
9945 2 11.8609478931 2.3666593622 0.0985582861
9948 2 10.5813600339 0.1555918279 0.0391465264
9942 1 8.1126115699 0.0295786051 0.0828329891
8806 1 11.8793442 3.799378318 2.0524230449
31 1 13.2196827555 3.0148783521 4.0580631198
8812 3 14.4722427367 3.8070912653 2.1134334822
9950 1 13.1330839064 1.5901243742 2.1024542322
9956 3 15.6407358973 1.633056996 2.0570291153
1169 2 11.906388577 0.909426063 4.1047647624
9951 2 14.3635245405 2.326590588 0.0249969763
9954 1 13.1349338999 0.0712484838 0.0568315003
9960 2 15.7024647807 0.1451858169 0.0549856537
8818 1 17.0298386874 3.8538237894 2.0642600941
8824 2 19.5006286609 3.6357921484 2.098514652
9962 1 18.2104034497 1.4937950567 1.9752729491
9957 2 16.9053059491 2.3347741695 0.0335573637
9966 1 18.2423276242 0.0776720657 -0.0586733932
8830 3 21.9877310998 3.8002237593 2.0711646989
9974 2 23.3324996211 1.5615553648 2.0998918272
9968 3 20.6589638573 1.5125013905 2.098326726
9969 1 21.976641584 2.125135771 0.1085708087
9972 3 20.7443623188 0.093119865 0.0492740821
9978 3 23.1988438977 0.0451868703 -0.0140392024
8836 1 24.3982888667 3.7645449414 1.9856944694
8842 2 26.8716178175 3.814923878 2.0297486037
9980 2 25.7630362651 1.5225944133 2.0548375876
4895 3 44.6407497772 44.4060643989 22.5933524923
9981 3 26.971054507 2.2781780969 0.0416403645
9984 2 25.7074603215 0.0625115785 -0.0358498223
8848 2 29.4810960826 3.8236378319 2.1705862508
9986 2 28.1942172304 1.569904777 2.0485251211
9992 1 30.7055000412 1.6342394915 2.081078259
9987 2 29.4240734298 2.2555347193 0.0348163079
9996 2 30.7517779149 0.1221601631 0.0928170904
9990 1 28.2269505211 0.1241841603 -0.0607447189
8854 1 32.0034143649 3.8317842935 2.1143943061
8860 1 34.4206355739 3.711186045 2.0240995668
9998 3 33.2456617282 1.6279784303 2.0232976481
1223 3 34.5044421339 0.8710976105 4.10758663
85 1 35.7332656255 3.0022813421 4.0558445246
10002 1 33.3649724248 0.1288718808 -0.0259137099
9993 1 31.9926669676 2.2572609386 0.0163626481
10004 2 35.9511703908 1.5003530007 2.0836628645
91 2 38.376604185 3.0327519074 4.174753451
8866 3 37.0501749081 3.7921723985 2.0902633632
8872 3 39.6278424602 3.7463631703 2.144772366
10010 2 38.3649689361 1.5716082038 2.1672168697
4901 1 47.1018179874 44.4210667281 22.5867047374
10008 3 35.871257576 0.1776164004 -0.0390715218
10005 3 37.154713061 2.3365538063 -0.04305366
10011 2 39.6173722683 2.3124311166 0.0496904035
8878 1 42.0493561488 3.8198316024 2.0942670743
10016 2 40.912101754 1.5812337225 2.1027984015
10022 2 43.4116246926 1.6363331163 2.1852517941
10026 2 43.3319229073 0.1461035707 -0.0329314837
10020 1 40.8713544671 0.0804487452 -0.0041465942
10017 1 42.0174746091 2.2611514324 0.0480601454
8884 1 44.5541792856 3.7317935109 2.0237286068
8890 3 47.082003964 3.6829758406 2.065490307
10028 2 45.7861964093 1.6182853483 2.1193101968
10032 2 45.9236361605 0.0593431435 0.0316026936
10023 1 44.486423404 2.2671199179 0.0577366519
10029 2 47.077561056 2.3882313104 0.0744400454
5 2 1.8103553914 5.298050557 4.1435056142
8786 2 3.0507458668 5.9224961365 2.1172568611
8780 1 0.479116686 5.9159554873 2.0852608024
8790 2 3.0414334997 4.5168228956 0.0387638209
8781 3 1.7073825278 6.6634561394 0.1244068528
8792 3 5.5746748455 5.9887655385 2.0937633076
8796 2 5.5132489162 4.3640189661 -0.0302998572
8787 3 4.3202085369 6.7068050908 -0.0109939133
8793 1 6.8580658985 6.5173320282 -0.0464742213
23 1 9.2745100547 5.2435910677 4.1290197299
8798 2 8.1240392904 5.9352532935 2.1274925768
8804 2 10.5503045856 5.8850311033 2.0984326044
8802 3 8.0285244725 4.2907253456 0.0100190226
8799 1 9.3744677798 6.6095787058 0.0288285141
8805 2 11.8467047288 6.6478401357 0.0415486141
35 1 14.4229745598 5.2180666849 4.203263986
8810 2 13.1324388436 5.9785316576 2.0775517621
8816 2 15.5861365098 6.0010527602 2.0825865768
8820 1 15.7306746974 4.4744049033 0.0302497863
8822 3 18.1717036078 5.9143273744 2.1088082084
8826 2 18.264067937 4.4403653651 -0.0239587718
8817 3 16.927543549 6.6713237596 0.0509783237
8823 1 19.3862045077 6.6242916987 -0.0379353694
8828 3 20.6251339446 5.9789105366 2.0531034931
8834 3 23.1930562696 5.9478893822 2.0350106658
169 2 23.2258162763 7.3898126716 4.0385977324
8832 3 20.8254490502 4.4211628059 -0.0319956436
8838 1 23.2237466727 4.4713849192 0.0318530297
8829 2 21.9972516177 6.5888386868 -0.0525394135
8840 3 25.6712101744 5.9737533142 2.0180878597
175 3 25.6810120357 7.3861256141 4.0477588003
8835 3 24.4478525336 6.6767057185 -0.0358773018
5011 1 45.8983629077 46.6282337846 22.5519010752
71 1 29.478457237 5.2109917076 4.1160705012
8846 3 28.2252256952 5.9676458815 2.0020753895
8852 1 30.7159216465 5.9514849001 2.1333543439
8850 2 28.2354065503 4.3288438324 0.0539162601
8856 3 30.7666116605 4.4909101783 0.0370378003
8847 3 29.5331224422 6.6377550835 0.0599026251
83 2 34.4800729223 5.2654119278 4.1090812896
8858 1 33.2388049837 5.9892155755 2.0143039577
8853 3 31.964601951 6.7046702377 -0.0273370824
8859 1 34.422966371 6.6559281248 0.0782243434
89 3 37.0256456683 5.1479548606 4.1010384634
8864 3 35.737025468 5.9457789277 2.1203959291
8870 2 38.3393490465 5.9221301672 2.1626366643
8874 1 38.3528271961 4.5363002339 -0.0036824776
8868 1 35.8810356116 4.4879548901 -0.0338107323
8865 3 37.0556425728 6.656388095 0.1070518998
8876 3 40.8325612743 6.0072618502 2.0473352503
8882 3 43.4085960701 5.9832519097 2.1285862452
8880 2 40.7810585424 4.5175356678 -0.006391308
113 3 47.1991436093 5.2110858342 4.2056198414
8888 1 45.8616502137 5.8128982705 2.2542379892
8892 3 45.7998435611 4.4682650684 -0.0343607765
8883 1 44.6563536131 6.6440029468 0.1803621048
8889 3 47.0691755316 6.6158770257 0.1562668178
8896 1 1.7460651246 8.1535294306 2.1280610809
8900 3 3.0714138469 10.4021638455 2.0997251526
8894 3 0.5660097476 10.2973664496 2.2058311663
8904 1 2.9818878913 8.803289907 0.1545383375
8898 2 0.5055165514 8.6863014643 0.0816637452
8895 1 1.832933935 10.958328178 -0.0597034311
8902 1 4.2969497853 8.1099787297 2.0743101516
8908 2 6.8774033254 8.0349664719 2.0153082782
8906 3 5.598400246 10.2759272826 2.0301050509
241 2 5.5531774458 11.709956389 4.1468065389
8910 2 5.6920913454 8.8015862435 -0.0252282389
8901 1 4.3041723589 11.0430789918 0.0921091713
8907 3 6.9026921029 11.00131141 0.0259141196
8914 1 9.279444791 8.1013198793 2.075794799
8920 3 11.845971808 8.1056204843 2.0222433122
8918 2 10.7163069672 10.2667872636 2.0127068719
8912 3 8.102971036 10.2282148942 1.9550067773
253 1 10.618908343 11.6767850436 4.1802524941
3760 3 47.0955941872 47.3612043372 20.5749261826
8922 1 10.5767135361 8.8009204509 -0.074391891
8913 3 9.3944368451 11.0069007418 0.0111028461
8926 3 14.3282078523 8.1111724941 1.997957883
143 2 11.8839905036 9.5082959559 4.1196744839
8924 2 13.1523915833 10.2242334173 2.1018591554
8930 3 15.7250111884 10.3164391763 2.1045559027
8934 1 15.6570949934 8.8010903572 0.088570533
8928 3 13.0914301081 8.77969543 -0.0435691186
8919 1 11.9819908177 10.9354664443 -0.0447586589
8925 2 14.4497674519 11.0363618198 0.1287511714
8932 2 16.8531416368 8.0535091393 2.021019304
8938 3 19.4463338649 8.1381736771 2.0837126384
161 2 19.4636685466 9.5011647587 4.1216314535
8936 2 18.2265638233 10.2768268458 2.1711135927
271 2 18.199501464 11.6949610568 4.1847768115
8931 2 17.02457697 10.9998236665 0.0673066878
8944 3 21.8945858456 8.1804746684 2.0045061079
8942 3 20.6770978781 10.2982622521 2.1238840666
8948 3 23.1414254386 10.3464732019 2.0797299011
8946 3 20.6459483318 8.8172466173 0.0193818034
8952 1 23.1766432168 8.8071226629 -0.0427849806
8950 3 24.4390472199 8.2024651629 2.0217088481
8956 1 27.0652852983 8.1749327296 1.9179186187
173 2 24.3865048847 9.5505351518 4.1173397658
8954 2 25.6916999839 10.3068900446 2.0678801673
289 2 25.6350288671 11.7321612888 4.0868165003
8958 3 25.7567610559 8.788232513 -0.0368319785
8949 2 24.4742921517 10.9506863085 -0.0025277758
8955 1 26.9561257186 11.0187417413 -0.0205097454
8962 1 29.5109992416 8.1775662503 2.1304027795
8966 1 30.7265134012 10.205411301 2.0570102382
8960 1 28.1967703699 10.3393812527 1.9794940444
8964 3 28.3416130182 8.7633159854 -0.0646271591
8970 1 30.8466093655 8.8906704141 0.0655193968
8961 3 29.5230031936 10.9965446459 0.0487579317
8968 2 32.0488266191 8.0665675856 2.0259627924
8974 3 34.5343466952 8.2033497841 2.0028759505
197 3 34.5257434298 9.6027036925 4.0188337073
8972 3 33.1846677658 10.2685504788 2.1039906545
3754 2 44.6183482909 47.3648611534 20.493891745
8967 2 32.0320245062 11.0310073057 0.0024837234
8973 1 34.4820853558 11.0019486108 0.0601253419
8980 1 36.9772887219 8.0736779926 2.1057551656
8986 3 39.5513947757 8.0973946154 2.1815237656
8978 2 35.8472450616 10.3530182334 2.0744620136
8984 3 38.2985014866 10.2676425982 2.0689285162
8982 3 35.7894135655 8.8926414895 -0.0446553527
8988 3 38.2975683699 8.7993027597 0.1011060588
8979 2 37.1625426697 11.0018893676 0.112108852
8985 2 39.6707694728 10.9788662257 -0.0364697496
8992 3 42.0811195795 8.1917601757 2.0395825089
8990 2 40.8066002684 10.2738146894 2.084409321
8996 2 43.3426542575 10.303194589 2.171953696
8994 2 40.8084429238 8.8279676723 -9.7273308656e-05
8991 1 42.0423783473 10.9275923522 0.091239725
8998 3 44.5712169542 8.1305779978 2.0837945928
9004 2 47.1912198476 8.1246418144 2.1357852525
9002 1 45.9736743041 10.1982996319 2.0494678784
9006 1 45.8674736083 8.7558576811 -0.0141602961
9003 3 47.148768917 10.9246368022 0.0580904368
9010 1 1.7394791347 12.440172911 2.0785908663
9014 2 2.9632085758 14.6287184012 2.0945404505
9008 2 0.567651548 14.6116340357 2.1244422322
9018 3 3.0650135892 13.197444227 0.0144495436
9012 2 0.4987103736 13.1287092048 0.1108695275
9009 2 1.8736089406 15.358094294 0.038885033
9022 2 6.873883242 12.3835668543 2.0871375517
9016 1 4.2697715071 12.5397507885 2.0580005159
9020 3 5.6405184876 14.5462805221 2.028809366
9024 2 5.5543593734 13.166103117 0.13540994
9015 2 4.3359993841 15.3561376755 0.0858424164
9021 1 6.914953412 15.3681429031 0.0057760931
9028 1 9.3191082188 12.3855737677 2.0598252284
9026 2 8.2534707022 14.6341705368 2.1598961926
9032 1 10.5825228548 14.5599912417 2.1144415816
9030 3 8.175619007 13.1989322791 0.0721164399
9036 1 10.6977318979 13.1658823415 0.0189666098
9027 1 9.3480567617 15.3450083389 0.0246315497
9034 2 11.8772278832 12.4890964209 1.9888309049
9040 2 14.4386718041 12.4581264699 2.159508599
9044 3 15.5834931504 14.619781414 2.0416804578
9038 3 13.07140537 14.6116142059 2.0738741222
9039 1 14.3387035325 15.4315534415 0.0255849985
9052 1 19.4343023539 12.4271229362 2.1287351526
9046 3 16.9729541466 12.4311433033 2.194947991
275 2 19.3120041395 13.9261047794 4.1635663033
9050 2 18.1377534362 14.5940381711 2.1456183197
9051 3 19.3287632167 15.3918911746 -0.0303549815
9045 3 16.8270976998 15.3637509096 0.045200942
9058 1 21.8963449987 12.4840108961 2.0666856637
281 1 21.8736228176 13.9041188051 4.1163068349
9056 3 20.6896075279 14.5885945425 2.050698455
9062 1 23.1753037454 14.6506306696 1.9779085642
9060 3 20.5621359971 13.1840539519 0.0865357411
9066 2 23.1424785863 13.1897835579 -0.0648419856
9057 2 21.9347952687 15.4489287438 0.0129257862
9064 1 24.4660298345 12.5146102951 2.0761415567
9070 2 26.909617856 12.438863458 2.0405452225
9068 1 25.7556622101 14.7054917486 2.0087690371
9072 2 25.7197978164 13.2009584183 -0.046097596
9063 2 24.4660659926 15.2712075105 -0.0675686796
9069 3 27.0358344455 15.3622977849 0.0303729083
9076 2 29.4482349171 12.3683505029 2.0556155109
9074 1 28.2844487788 14.6483059464 2.0745124283
9080 2 30.7093110209 14.6571444692 2.0169445011
9078 2 28.2415105396 13.1091316969 0.0412106885
9084 1 30.7374691809 13.1875076302 -0.0646739562
9075 3 29.4208863734 15.3705093955 -0.0371350792
9082 1 31.8654102721 12.4144572394 1.9899692433
9088 1 34.4597056365 12.51746594 2.1280387476
9086 1 33.2254819608 14.5613906034 2.0683604061
9090 1 33.1715451601 13.1765376946 0.0378828144
9081 1 32.042541633 15.3905191742 -0.0126449595
9087 3 34.5850323906 15.3838843341 0.0488339847
9094 3 37.0491750063 12.4662402547 2.1451398101
9100 1 39.5932029385 12.5119981589 1.9641191216
9092 3 35.8250526968 14.5610751145 2.0354632569
317 1 37.0785557109 13.9518898136 4.1454125076
9098 2 38.3616817326 14.6025874069 2.1363168178
9102 1 38.2979919006 13.2897399893 -0.0387775373
9099 3 39.5859165017 15.3841221432 0.0104994338
9093 1 37.0717650937 15.374475939 0.1275741388
9106 1 42.1015935952 12.3632498986 2.0726810555
9104 2 40.9085344706 14.6375846784 2.0745802443
9110 1 43.3124654735 14.5687697065 2.1093129424
9108 1 40.7697818751 13.2674034359 -8.3910545667e-04
9114 2 43.2712168093 13.1763897545 0.0950852325
9105 2 42.0816685998 15.4097358339 0.0082165507
9112 2 44.6588495074 12.412813658 2.0343878538
9118 1 47.1780386885 12.5213650268 2.088031764
9116 1 45.9251441591 14.6866374575 2.0422046435
9120 2 45.7674109992 13.1761318473 0.061431036
9111 1 44.5768828294 15.4179543448 0.1333930087
9124 1 1.7735794303 16.8235396626 2.0373584095
9128 1 3.2377811745 18.928916657 2.1155737785
9122 2 0.6276318079 19.0379072832 2.115785077
9132 3 3.0519313822 17.6398742589 0.0626897626
9126 3 0.5344399667 17.5350343139 0.0853175966
9123 3 1.7355260519 19.7261568299 0.107941331
9130 3 4.2768493293 16.6931959115 2.0818112496
9136 1 6.7818452792 16.7258575396 2.0276917668
9134 2 5.6676157663 18.941673873 2.009523736
9138 3 5.4820740179 17.59308917 0.0532072641
9129 1 4.3988859042 19.8221292293 0.022655278
9142 1 9.4176808858 16.7958483962 2.0179655499
9140 3 8.1315066512 19.0359800942 1.9555310696
9146 3 10.6438253404 18.9952416546 2.1047381861
9144 3 7.9311412732 17.4650941267 -0.0387766931
9150 3 10.5217068201 17.5584370959 -0.0469193384
9141 1 9.3145344485 19.6864951809 1.2205530758e-04
9148 3 11.8645056058 16.8506396285 2.0772621187
9154 3 14.2950257649 16.8088156215 2.1009156621
371 2 11.8599850543 18.2002456003 4.1101066516
377 1 14.412094258 18.3526136281 4.1858158803
9152 1 13.1047346271 19.0611634099 1.9811743331
9158 1 15.6046254488 18.9664966154 2.0650596105
9147 2 11.9082036447 19.7033973522 -0.0328416956
9156 1 13.0562375933 17.6263745954 0.0383663482
9162 2 15.5640189683 17.5563728324 0.0977367664
9153 1 14.379801293 19.7602628299 0.0049089604
9160 3 16.9573849638 16.7871372899 2.1010063274
9166 1 19.4578546242 16.8153990162 2.0459020731
389 2 19.3882634192 18.2602289339 4.1000545237
9164 1 18.0878869468 18.9813694842 2.1234778214
9168 1 18.0811773823 17.5641817485 0.0671963719
9165 1 19.4249234481 19.6345859978 0.0072625637
9159 2 16.924651331 19.6756850974 0.0090014618
9172 3 22.0365908246 16.7445706724 2.0373172675
395 3 21.9929919771 18.2078039786 4.1379768416
9170 3 20.6799741648 19.0031087156 2.0588609634
9176 3 23.1414032592 18.9932769984 2.0846488732
9174 1 20.6151264523 17.486398287 -0.0258893573
9180 1 23.1939897639 17.5803623228 0.0488700902
9178 2 24.5034479408 16.7711633348 1.989891526
9184 1 27.0457353467 16.8395190657 2.000073624
9182 1 25.7408569897 19.0124116986 2.0973882363
9186 1 25.7750023356 17.4961361325 -0.0046120961
9183 1 26.9216984233 19.689951369 0.0283200048
415 2 30.7131417004 16.045111022 4.281132222
9190 1 29.5351871693 16.7775478205 2.1316626066
9188 3 28.1813673779 19.0773192669 2.1246987651
9194 2 30.7156761413 18.9062554781 1.9902536369
9198 2 30.9188502199 17.449954643 0.0502354569
9189 1 29.4202433753 19.7265057503 -0.0109608479
9196 3 32.0591393697 16.7675709653 2.190543215
9202 1 34.5706746557 16.6889817606 2.1576829258
9200 2 33.2544335289 18.9311412956 2.1035034286
9204 3 33.3326614439 17.5207657223 0.1032549639
9201 2 34.586984783 19.6445521661 -0.0246019233
427 2 35.7295056755 16.1332251932 4.1394597306
9208 3 36.9855222776 16.7780665496 2.131564985
9206 1 35.7901973779 18.9997246434 2.1422053788
9214 3 39.6012205442 16.7522690919 2.0697449039
9212 3 38.3385457468 19.0114433792 2.0509994906
9210 2 35.8308933338 17.516634776 0.197980291
9216 1 38.3304273253 17.4863695266 0.0809919648
9207 2 37.1375235142 19.7155944626 0.097305178
9220 3 42.1924083988 16.9062141513 2.1827901852
9224 1 43.2837914232 19.1343911038 2.093528186
9218 2 40.7819849794 18.9866234179 2.1410255165
9228 3 43.378043065 17.5441560795 0.1339751665
9222 2 40.9247758669 17.5345237611 0.0946820449
9219 1 42.1157422736 19.8159219428 0.0361698179
9226 3 44.5862802304 16.8515123729 2.2238714971
9232 2 47.0558197442 16.8486363916 2.0743989094
9230 2 45.8219068868 19.0270744998 2.1112916307
9225 3 44.5507214842 19.724020153 0.0057782939
9231 1 47.0381338484 19.7499830609 -0.0674635533
9238 1 1.8020219997 21.2004090161 2.1039360922
461 2 1.841471152 22.6406366647 4.1009669799
9242 1 3.0627405958 23.3424568023 2.0736217502
9236 2 0.526154625 23.4566515914 2.064411879
9246 2 3.0577148359 22.0045915294 0.032425146
9240 2 0.4697228634 21.9835745805 0.0106892407
9244 3 4.4134216015 21.1240470422 2.1077367707
9250 1 6.8828123554 21.1397774425 2.096746509
9248 2 5.5395394283 23.3835125435 2.0481149058
9252 3 5.6406441092 21.9250766217 0.0243788411
9256 2 9.34680645 21.13591204 2.0070513293
9254 3 7.9815160898 23.3372432569 2.0775172584
9260 1 10.5618444904 23.3629484486 2.0296993471
9262 3 11.8196246845 21.2068378796 2.0174094455
9258 1 8.1627678202 21.9033976151 -0.0311341072
9264 1 10.6843463849 21.8276020088 -0.0347303051
493 2 15.6376399896 20.497076455 4.1306784087
9268 1 14.4865753586 21.1670353008 2.0719068861
9266 1 13.0730705693 23.2883553189 2.1489544301
9272 1 15.6628867877 23.4008292656 2.0451853788
9276 2 15.6594967376 22.0104403863 -0.0340856134
9280 2 19.4361800667 21.165530896 2.1181864263
9274 2 16.9558912405 21.2464806813 2.0784896977
9278 1 18.17341666 23.3328581967 2.1265231299
9282 3 18.2022506459 21.8120340776 0.0956451467
9286 2 22.0162563504 21.187313143 2.0473846639
9284 2 20.7156055804 23.3514378482 2.1008369374
9290 2 23.2336591721 23.3508024185 2.0162948876
9288 2 20.6683124883 21.8640837805 0.0544408675
9294 1 23.2705562773 21.8617993118 -0.0364264128
9292 1 24.4605937127 21.1537279527 2.0419511944
9298 1 26.9608372619 21.2721839739 2.1514702937
9296 1 25.7426153658 23.4205019845 1.9912022745
9300 2 25.7003787658 21.937164623 -0.0341496149
9304 3 29.5407487737 21.1716686567 2.0062754437
9302 2 28.2875613268 23.3810224924 2.0377959176
9308 3 30.9278877556 23.2551186316 2.0440307129
9306 1 28.1904888565 21.8588265553 -0.004772656
535 2 33.2132410413 20.3994188442 4.1522509016
9310 2 32.1224898971 21.118190038 2.0612563837
9316 1 34.5786431874 21.1248344107 2.0866648479
9314 2 33.3859223035 23.3130749337 2.0829679225
9320 2 35.8491453094 23.3528076957 1.9774335521
9318 2 33.2866144747 21.8513201261 0.0018206986
9322 1 36.957589013 21.2354754186 2.0673686475
9328 3 39.5610068046 21.2756755385 2.0363765109
9326 2 38.2222405185 23.232177563 2.0587411322
9324 2 35.7608869106 21.8136822211 -0.0292189754
9330 3 38.2379475425 21.8729542247 -0.0109988174
553 3 40.7950781081 20.4702068157 4.1182029691
9334 1 42.0651113976 21.1995629289 2.0850511787
9332 1 40.8766911915 23.3227967164 2.006474804
9338 1 43.3940208003 23.3143634817 2.0742563899
9342 2 43.2892266941 21.9621826837 -0.0436128685
9336 2 40.8142038514 22.0515858783 -0.034446145
9346 1 47.077973174 21.2829776347 1.9842058355
9340 1 44.5585554902 21.1959394485 2.0699037673
9344 2 45.8964667994 23.382181636 2.0412949294
9348 2 45.716816563 21.9621998005 0.0652410004
9352 3 1.7119077189 25.5809228531 2.1046009678
575 1 1.8689122159 26.88111544 4.1804718437
9350 2 0.5440449605 27.7112717819 2.0816339293
9356 1 3.0344283063 27.6775870141 2.1505951801
9360 1 3.1006847708 26.2160246927 0.0703353361
9354 3 0.5842111907 26.2417669123 -0.0299401571
9358 1 4.3298062546 25.4888873903 2.0504299609
9364 3 6.7940113487 25.4994182223 2.1231666639
9362 2 5.6096679777 27.6852908662 2.1113119057
9243 3 4.4279407666 24.0709481811 0.0228487155
9249 3 6.8581777973 24.0764521627 0.0414013451
9366 3 5.5397793717 26.2287071547 -0.0039007146
9370 1 9.2759806562 25.5078281796 2.1567438591
9368 1 8.0704838945 27.7722811494 2.0483387852
9374 2 10.5975091011 27.8619222299 2.0606755542
9255 3 9.4136638274 24.0477545288 -0.0097313513
9261 3 11.9666450808 24.1478793684 0.0166870174
9378 1 10.6202629788 26.1923813458 0.0932666634
9376 3 11.8148186225 25.4921727179 2.0798650689
9382 2 14.3187123674 25.5202850518 2.0958893478
9380 2 13.1578618311 27.6883378561 2.0841968595
9386 2 15.6367918749 27.7661020223 2.0046499075
9267 2 14.4633917581 24.1335367989 -0.0118998612
9384 2 13.1377280953 26.2746498497 0.0875610371
9390 2 15.7521299079 26.2029182738 0.0637208486
9388 1 16.8775933487 25.5398966605 2.2010765287
9394 3 19.5179678917 25.5722490748 2.1188420305
9392 2 18.2437192129 27.6975677007 2.2115510025
9273 3 17.0162659977 24.0555981403 0.067144369
9279 3 19.5016334265 24.0036451378 -0.0262595121
9396 2 18.2650332978 26.279151139 0.0649830493
9400 2 21.955333863 25.4996128808 2.1740340565
9404 3 23.1707862982 27.7053012014 2.0689896141
9398 2 20.6328341674 27.6911420581 2.0951845923
9285 1 22.0328453842 24.0490598631 0.0133135463
9402 3 20.7132475198 26.1594993872 0.0236702975
9408 3 23.2490661465 26.2046601115 -0.0537848218
9406 3 24.455828293 25.5619512082 2.0361164229
9412 1 27.0046941818 25.5869240998 2.1470671627
9410 1 25.7409209772 27.8312193672 2.0057592544
9291 1 24.5020815028 24.0699275462 -0.0437691028
9297 2 26.9948501906 24.0899432268 0.0813593057
9414 2 25.6649865708 26.1677515064 -0.0424403312
9418 1 29.5749333748 25.4746282065 2.0584767322
9416 3 28.1633133505 27.7436698355 2.0280791574
9422 2 30.6827626019 27.7217279674 2.0453234122
9303 2 29.5343026866 24.1713129462 0.0176369069
9420 2 28.2182008744 26.2534897116 0.0739783313
9426 3 30.8360505092 26.2634289489 0.0326931931
9424 2 32.0493798729 25.4031586505 2.0303020255
9430 1 34.5016698281 25.4651450847 2.1104681351
9428 2 33.2665338877 27.5628052429 1.9502244581
9315 2 34.5414421806 24.0762867455 0.0474448736
3644 2 45.9275515479 45.1489114465 20.5319304365
661 3 38.3193578194 24.7204978184 4.1004905171
9434 2 35.7567619869 27.7092843606 2.1695411103
9436 3 37.0102725095 25.5086385988 2.0702391904
9442 2 39.6188753156 25.4804904293 2.1890492948
9440 2 38.37338063 27.8261064526 2.27642775
9327 3 39.4985892522 24.1630330388 0.0521834457
9321 3 37.0670557636 24.1215240314 0.0527914364
9438 3 35.7961400257 26.2472689721 -0.0271239781
9444 3 38.3449801429 26.3744738137 0.0232960904
9448 3 42.1800753961 25.415357774 2.1582596909
9452 3 43.4013314753 27.7094011813 2.1577077944
9446 2 40.8234128376 27.6957473795 2.1137942175
9333 2 42.0816414261 24.1193715166 -0.0248320819
9450 3 40.9064545885 26.2373783529 0.1054630055
9456 2 43.4001605941 26.378010804 0.0075258957
9454 3 44.5561287394 25.5387626614 2.0481513769
9460 3 46.9953770868 25.6115963472 1.9843798514
9458 2 45.8407583182 27.7363536706 2.1655565332
9339 2 44.4813605029 24.1960722662 -0.0263488274
9345 3 47.1103693656 24.1486513465 -0.0167393717
9462 1 45.8217947982 26.3004570429 -0.0263498179
691 1 3.0852107457 29.1724132209 4.1525302893
9466 1 1.8183856794 29.9269958916 2.0070525179
9468 1 0.5491147429 30.6385451532 -0.0104257636
9474 2 3.157929623 30.5753837992 0.0275473823
9351 3 1.7981201959 28.4290296722 3.7061449277e-04
9472 2 4.2936306033 29.9229523852 2.1618765994
9478 1 6.8754363209 29.9616268067 2.0640219542
9480 3 5.5997952016 30.5696333054 -0.0287213497
9363 3 6.881123334 28.4495830895 0.0199721802
9357 2 4.2575272306 28.3488833802 0.1596257369
9484 3 9.3704481568 29.9393820297 2.147845676
9490 1 11.8583050675 29.9340829474 2.0234912161
9375 1 11.9005782137 28.462291126 0.0486004094
9492 2 10.6117731075 30.6017412441 0.0775362074
9486 1 8.1861495832 30.5672706209 0.0515482376
9369 2 9.3920473411 28.3871489207 -0.0219825293
9496 3 14.4141079195 29.8139363016 2.0680654645
9504 2 15.7275774438 30.5562826238 0.0021174062
9498 3 13.0604584674 30.6537652076 0.0454114971
9381 1 14.4940160703 28.3935776429 0.0051061098
9502 2 16.9107166715 29.7466763491 2.112251359
9508 1 19.5365966951 29.9172743897 2.1047186323
9510 1 18.2379513491 30.6203524838 0.127657079
9393 1 19.5040949069 28.3741128063 0.0739918196
9387 2 16.9238847921 28.4247533346 0.1237361935
9514 3 21.9549762036 29.9852046278 2.1410136805
9522 1 23.1693891432 30.6863394108 -0.008362022
9516 1 20.6961316245 30.5667272427 -0.0169997271
9399 2 22.0442421481 28.3675213393 0.0372003534
9526 1 26.9279999716 29.9359858644 2.0867709285
9520 3 24.4036992453 29.8849069898 1.9995166163
9524 1 25.806910651 32.172137418 2.1546892565
9528 3 25.7635309765 30.5387784568 -0.0074168075
9405 3 24.4491072604 28.4371862566 0.0437432609
9411 3 26.9615520214 28.4148710369 0.0033040952
9532 2 29.4635598611 29.8439332339 2.1449865014
9540 3 30.77107857 30.6353749499 0.0788049927
9534 2 28.3003653923 30.5082873272 0.055769239
9417 2 29.4426522292 28.3712348885 -0.0155575727
9538 3 32.0243459522 29.9085193745 2.0874086382
9544 1 34.5742186549 29.9478028773 2.1593578535
9546 1 33.2381813137 30.7120217988 0.0231401346
9429 1 34.5267255737 28.451229297 0.0626282087
9423 1 32.0056874218 28.3751738866 0.0703164197
9556 3 39.5593073502 30.0005011577 2.0295826073
9550 2 37.1402124963 29.9130131704 2.1241890746
9558 3 38.2953417615 30.5949486032 0.0120067059
9552 2 35.7621601689 30.575936094 0.033039395
9435 3 37.0922732301 28.4185414309 0.0228595854
9441 1 39.6301145838 28.4927026064 0.0451980833
9562 3 42.0916761592 29.937513351 2.1808254571
9564 3 40.8456111064 30.6693450272 0.0307761414
9570 3 43.3270354653 30.737828428 0.0043653705
9447 2 42.116484164 28.4530719081 0.1305907376
793 1 45.8602532664 29.1139894634 4.2226786281
9574 2 47.1907640232 29.8877281942 2.0673167147
9568 1 44.5982908715 29.8839948798 2.0148150187
9576 1 45.8573301929 30.6561701154 -0.0324483262
9453 1 44.6363264427 28.4624965251 -0.0036180037
9459 3 47.1134307392 28.4219880038 -0.0718911941
9464 2 0.5591617387 32.1317750165 2.0478030708
9470 1 3.1134078853 32.0732649676 1.9744382185
9580 2 1.8743459613 34.2591982239 1.9495721577
4889 3 42.0903630172 44.4627452837 22.6072943131
9588 1 3.1302141604 34.9660012594 0.0351526607
9465 2 1.7512425702 32.8151222269 -0.0424381619
9476 2 5.6631859435 32.1259321488 2.0483740278
9586 3 4.421716604 34.2450625487 2.0303531691
9592 3 6.8991217005 34.3343937838 2.0402063465
9594 1 5.6244130343 34.9016102882 -0.0100713251
9477 1 6.9298649824 32.8162167229 -0.0498806608
9471 2 4.3610438234 32.8095644528 -0.0548162251
9482 3 8.040730443 32.1572158962 2.0415754629
9488 3 10.5669860948 32.0637412201 2.0572511745
9598 3 9.4615606437 34.3499569226 2.077791405
9604 2 11.9332981582 34.1847635 1.946160447
9489 3 11.8962156408 32.7663137692 -0.0751683342
9606 3 10.644540404 34.938611439 0.0095355451
9600 2 8.2142745174 34.9985342795 0.025837967
9483 2 9.3805877224 32.7405562464 -0.0399543774
9500 2 15.7047587338 31.9633052347 2.2487793573
9494 2 13.1472083087 32.0359486101 2.1032071537
9610 2 14.4937138402 34.1734189833 2.0317629146
9612 1 13.2135058774 34.8118967218 -0.0105192561
9618 1 15.7558168721 34.9784388968 -0.0586206188
9495 2 14.4182736867 32.6786208503 -0.0319061755
9506 3 18.1915502642 31.9684096137 2.0944762156
9622 3 19.3763010179 34.1909353776 2.107632214
9616 2 16.9886437953 34.1422081264 2.0712165509
9624 2 18.287052858 35.031178892 0.0172395335
9501 3 16.9031164401 32.780552869 0.1833164528
9507 1 19.4582286949 32.8272328816 -0.0456659915
9518 1 23.1396713521 32.1704394089 2.0533741468
9512 1 20.7549118368 32.0737208812 1.9497679345
9628 2 21.9667415106 34.28234097 2.1142790298
851 3 22.0575569049 35.7578551621 3.9899094682
9630 3 20.7307258895 35.0043357649 0.0869591352
9636 3 23.3573219918 34.9603218889 -0.0291634038
4999 1 40.748836824 46.5003148746 22.5324247628
9634 2 24.4965190304 34.2538262861 2.0633268349
9640 3 26.9980417299 34.1998286545 2.0642387334
9642 2 25.8451771413 34.9485794314 -7.4591776733e-04
9519 1 24.5840743088 32.74242761 0.1099498325
5005 1 43.2751277755 46.5544676475 22.6246091976
9530 1 28.1977477143 32.1101246973 2.1199409286
9536 3 30.9660315994 32.1294347582 2.1336386328
9646 2 29.4555366967 34.2594745696 2.0992164887
9648 1 28.2899597012 34.9759643671 -0.0327155245
9531 2 29.5349787158 32.7003091656 0.1389966934
9542 3 33.3278660173 32.0532336904 2.1020268181
9548 2 35.8111304277 32.0469230366 2.0416587644
9652 2 32.0082015394 34.3990437573 2.1743715162
9658 3 34.5207632824 34.2621387725 2.1279000809
9666 2 35.8556024819 35.0301949619 0.0316945611
9660 1 33.2985004893 34.9775193576 0.0944038414
9543 1 34.5082931611 32.845949756 -0.0370670518
9554 2 38.3350980479 32.2043884294 2.0560992343
9670 2 39.5843902161 34.3030239305 2.0715145044
9664 1 37.1198500977 34.3457689037 2.0623839725
9672 2 38.361015844 35.039281539 0.0539696776
3748 1 42.0992578817 47.3705055798 20.5553573902
9549 2 36.9544392158 32.8279327675 -0.0468216312
9566 3 43.3599861977 32.1130677333 1.9565317549
9560 2 40.7932462297 32.1710789566 2.0412846394
9676 2 42.0478969323 34.2324602167 2.0117794634
9678 3 40.8119115111 35.0837053962 -0.0491003893
9684 1 43.3838689926 34.9809628035 -0.063439807
9561 3 42.0200940016 32.8432949156 -0.0147796064
9572 2 45.9315355889 32.013251702 1.9639219821
9688 2 47.1654648063 34.2715861861 1.9689901407
9682 2 44.5493527495 34.2804470582 2.0095289933
3638 2 43.3048837682 45.0798784576 20.5888825141
9567 1 44.5751721466 32.807175422 -0.0268903175
9573 1 47.1048806025 32.8342465128 -0.0494679393