ITEM: TIMESTEP
0
ITEM: NUMBER OF ATOMS
10032
ITEM: BOX BOUNDS pp pp pp
-0.0780174257 47.728336203
-0.0781637267 47.8773722318
-0.0806724387 49.1879867104
ITEM: ATOMS id type x y z
3 2 1.1965388881 3.4243437833 1.9275310491
9 2 3.6626119394 3.5096635572 2.0116013801
11 2 3.6134642351 2.0637738798 0.0494051479
12 1 2.3856711054 1.2760373634 2.0788127898
13 2 4.8729156416 -0.0314885072 -0.0438401183
2 1 -0.0588529762 2.8200063321 4.0943199703
5 1 1.0977044093 2.0451715381 0.0076119905
15 1 6.1503748161 3.4064769616 2.0014943299
229 1 0.0182494508 8.5919012581 -0.0647876918
18 1 4.9772443165 1.2393696948 2.0514773129
24 2 7.4960347032 1.3612643757 1.9662880394
133 1 7.4433259707 4.2719450911 0.0025197895
16 3 6.216434332 0.5459096067 4.0051638281
1483 1 0.1306516785 8.5666415645 6.1275757768
21 3 8.6521236821 3.5727005467 2.1503617215
27 2 11.2580913585 3.5352224959 2.0715778609
30 1 9.932568621 1.3737302275 1.9951584774
26 1 9.9438627488 2.7553886198 4.089958062
28 2 11.1891704872 0.6174510647 4.1668138447
23 3 8.6447568046 2.0870935208 -0.0720489061
29 2 11.236895995 2.123276531 0.0077024994
139 2 10.0130977419 4.2448510482 0.0825289514
117 3 1.2308303016 7.7998413367 1.9263665719
123 3 3.6821809515 7.8524778847 1.9337568681
126 3 2.4412350995 5.7057952084 1.9609103534
120 2 -0.0343644882 5.6254320198 1.8586816494
122 2 2.4341325573 7.0237640214 3.9654289788
6 2 -0.0685883473 1.2817361406 1.9879321509
125 3 3.6765128217 6.4075999754 -0.0548254461
128 1 4.9641888511 7.1276948907 4.009045059
129 3 6.1040105956 7.9246771204 1.953404686
142 1 11.1847821783 4.9806602698 3.9292789557
132 2 4.981651051 5.6985066561 1.8851695189
138 1 7.4489275645 5.6393492756 2.1275987086
1391 1 8.7585292312 6.4906186878 6.0931617572
135 1 8.6639110234 7.9087785641 1.9245035929
256 3 11.3301451838 9.4629926156 4.0531927666
141 1 11.1881792751 7.9012231034 2.0520323798
144 2 9.9303731328 5.8361634235 1.996433705
140 3 10.0508667787 7.1623223008 4.0637029718
253 3 9.9235024214 8.6031958187 -0.0773756625
8 2 2.3960794805 2.8655596803 3.8904986911
4 3 1.1701096825 0.5882126129 4.1445545179
10 3 3.5762557293 0.5167096319 4.0509209911
1259 3 1.1688624808 2.108172471 6.0645025168
1265 2 3.6699781465 2.0224428824 6.0083383567
1507 2 10.0079780502 8.6673536244 6.0916375146
1375 2 2.4515580358 4.2454410671 6.0403759511
14 3 4.9971791555 2.7405590216 4.0035747525
20 1 7.3985232689 2.7848671776 4.1784103668
1267 3 5.0370425119 -0.0652458537 6.0223631182
1271 3 6.2493443076 2.1157080988 6.1340335439
1273 1 7.5326308708 -0.0373689025 6.0283741714
1381 2 4.9112119609 4.1575677673 6.0784225218
1387 2 7.5087786143 4.2295958863 6.1481166038
22 1 8.7650168856 0.6486279147 4.0060389182
1277 1 8.7178686268 2.0678777 6.2094141641
1283 2 11.2968489652 2.0284859211 6.149549834
1393 3 9.9887524338 4.3087446525 6.0346700693
136 2 8.7352570941 5.0172425191 4.1618256486
124 3 3.7740115084 5.0149312949 3.9292513611
1397 2 11.2663529423 6.4305358834 6.0652398443
1489 3 2.513141642 8.5820880555 6.0528631367
1379 1 3.7408854548 6.3909109672 6.1118773031
1373 1 1.2688510187 6.3995105255 6.0546596012
238 2 3.6499643203 9.2859918071 3.962693946
232 2 1.2377051163 9.2778985179 4.0658835497
118 3 1.1474819182 5.0874200234 3.9928236314
1374 2 -0.0434836213 5.663596916 8.0802355357
244 3 6.3581186848 9.3354327659 4.054883976
1385 2 6.2498623814 6.4673250907 6.077027161
130 3 6.1778447311 4.9464953582 4.1694955796
1501 1 7.509486722 8.6595617417 6.0842985689
134 2 7.4833531173 7.1919153299 4.0167150482
1495 2 4.983815404 8.5353668461 6.0869202674
250 3 8.875477499 9.3057879696 4.0918684067
1266 2 2.4645379694 1.4373666748 8.0830618422
1284 3 9.9539336702 1.3479529311 8.1228904966
1380 2 2.3566500806 5.7015562141 8.1290090014
1386 2 4.9750843407 5.7931755034 8.0783004372
137 2 8.6486404953 6.466193938 -0.0700113382
247 3 7.4564961768 8.7466169077 -0.0494154445
143 2 11.2177404811 6.4452252977 -0.0488695652
1256 3 -0.0056105646 2.8297936941 10.1895856974
1257 1 1.1682821826 3.507213104 8.1352061283
1258 3 1.2264240979 0.6460848755 10.1729609243
1262 2 2.41032765 2.8831447368 10.1866032175
1264 3 3.6362269854 0.668876761 10.1364370758
1263 3 3.5959381235 3.6671340652 8.1439201611
2761 1 10.0232222808 8.6385006035 12.3474963766
1268 1 4.9586114406 2.8513727904 10.235961346
1269 3 6.1450022504 3.6285858147 8.1361408927
1270 1 6.2105622043 0.5622632273 10.1685997164
1272 2 5.0554102283 1.4694161716 8.1554247786
1274 3 7.352158643 2.7460126956 10.2275980839
1278 3 7.48166106 1.3251201512 8.2274320002
1275 2 8.6800802039 3.5270681099 8.1818716922
1276 1 8.6949771038 0.6258042281 10.2409928554
1280 1 9.9151612893 2.8004849982 10.1841242174
1282 3 11.2166923259 0.5266945036 10.1748444709
2652 3 10.0185344379 5.7374690275 14.3425347532
1372 3 1.209510285 4.9393436835 10.2183616612
1376 3 2.4721872508 7.1895553951 10.1312237175
1377 1 3.737807685 7.8967596688 8.1553543277
1378 3 3.6533949777 4.9464654707 10.1259331807
1486 1 1.1780511936 9.3476280823 10.1661333992
1492 3 3.7179143097 9.2969082658 10.1939449916
1370 1 0.041052044 7.1410778864 10.164606612
1371 2 1.2124675679 7.8733787867 8.1371388318
2649 2 11.2213427422 7.9914952561 14.3712827106
2639 1 6.3115228302 6.4524722051 12.2796771257
1382 2 5.104205389 7.1087411304 10.2695820411
1383 3 6.2503587079 7.8729361631 8.176414273
1384 1 6.1888012825 4.9887010708 10.1367650147
2643 2 8.6317649783 7.8693274829 14.3694876808
1388 3 7.5697828628 7.1766864724 10.1788904449
1498 3 6.2690049019 9.3444836291 10.1995763356
1392 3 7.4864603045 5.7704855077 8.151137903
2651 1 11.3323894266 6.4968365565 12.3425319923
1389 3 8.8845600938 7.9200205241 8.2551307476
1390 1 8.6642665775 4.9209244863 10.1945781485
1394 2 10.1033349194 7.1699030818 10.2907419891
1396 1 11.2541553901 4.9840160856 10.2750859176
1398 2 10.0427653492 5.6200109648 8.1937939966
1504 2 8.8746078425 9.3583475323 10.1960761766
1510 3 11.3592308801 9.2906247608 10.3143795288
2513 1 1.2371288675 2.1341030038 12.3016987677
2519 2 3.7342013113 2.1198149156 12.2064205664
2623 2 -0.0274842694 4.2209735822 12.2994675051
2629 3 2.5089086184 4.278473186 12.1603744917
2514 1 0.010184502 1.4476563038 14.3206347268
2511 2 1.1764073648 3.5297283246 14.3553832078
2517 3 3.663103316 3.5166329034 14.3081689474
2520 1 2.4854093256 1.3101965987 14.2703730465
1260 3 -0.0593408724 1.3164344042 8.1610952422
2525 3 6.2015767348 2.0697973929 12.2729159334
2641 1 7.4269106109 4.3082100993 12.1917140209
2523 2 6.2694911679 3.5393752396 14.3190657023
2526 1 4.9273906982 1.3353896358 14.2924048068
2532 2 7.4100517848 1.3333515102 14.2897581148
2635 1 4.986524268 4.3402405798 12.3602802074
2531 2 8.6525272484 2.2468189757 12.264028497
2529 3 8.7230917892 3.5834936926 14.3219366575
2535 2 11.2736444015 3.4678913436 14.2687365073
2537 1 11.0765928418 2.0385079856 12.1972808751
2538 1 9.9418451196 1.3321737879 14.3465902128
2647 1 9.9536451488 4.311226805 12.2170312441
2645 2 8.6986444867 6.4029457369 12.3006306928
2755 1 7.4995609419 8.6747692602 12.3421920157
2743 3 2.3481190734 8.6578443514 12.2300756184
2627 2 1.1106460669 6.5476134702 12.2209664685
2633 3 3.6331692142 6.4709315213 12.2744780509
2625 3 1.140984489 7.9723509239 14.2693664466
2631 2 3.6072884621 7.9119149978 14.2558708316
2634 2 2.426296601 5.7556815407 14.3236878577
2749 2 4.9248033591 8.6847460563 12.1926867489
2740 2 1.241644197 9.3738615334 16.2460247478
2624 3 -0.0127641244 7.1315289819 16.280938356
2637 1 6.1347004518 7.8262942564 14.3301372784
2646 1 7.458704202 5.661069549 14.2732566624
2640 1 5.0260512389 5.7191520347 14.3515652698
2516 2 2.4655431752 2.7959761772 16.3231278542
2518 2 3.847544725 0.5524125837 16.3040905147
2528 1 7.554135942 2.7630543971 16.2788411592
2534 2 10.0286272963 2.8597367752 16.3268315437
2746 3 3.6371894916 9.3909482804 16.2866113103
1395 2 11.2662258669 7.9134331999 8.1829439251
1281 1 11.2256971326 3.5555500928 8.187467115
5041 1 10.0594708242 -0.0025761082 24.4414310957
3787 3 10.0473331071 -0.0421805069 18.3747722652
3765 1 1.313383223 3.5712059046 20.3279579173
3767 1 1.2189709011 2.0453287241 18.4424475037
3773 2 3.8304568695 2.0840397244 18.4275499559
3883 2 2.5226739219 4.1822986637 18.2833416989
3771 2 3.6603412602 3.5383570569 20.5063443008
2510 2 0.020433986 2.8530563941 16.3922311105
2512 3 1.3066321839 0.6208132569 16.3569976991
2522 1 4.993778716 2.8432355797 16.3732346236
3775 1 5.0165411896 -0.0410213692 18.4189509513
3779 2 6.338871077 2.1130846301 18.3905708409
3889 3 4.9980902682 4.291900185 18.4655554558
3895 2 7.549822447 4.3998438472 18.4240124786
2524 1 6.2403701247 0.5815622644 16.3492321059
2536 1 11.3114356582 0.6449811201 16.3572425444
3785 3 8.6250091733 2.0980045283 18.3456137231
3791 2 11.2172972949 2.1002436329 18.2805716687
3901 3 9.9771119749 4.2973512001 18.3609443876
2530 3 8.6891740521 0.695450897 16.4253146616
3877 1 0.0435952981 4.2701378048 18.3421322242
2626 1 1.3060064913 4.9703602821 16.4170288288
2632 3 3.7865818038 4.9901035641 16.4502089465
3881 3 1.3140826229 6.4471082418 18.3185493549
3887 2 3.7067410809 6.5186517627 18.4013549567
3888 2 2.46158316 5.7350492058 20.4293737732
3991 2 -0.0504453198 8.7801554254 18.3433578509
3997 3 2.4106638891 8.6787404516 18.3406443634
3903 2 11.2029597346 7.894942887 20.494108915
3893 3 6.2993568787 6.466672214 18.4682165637
4003 3 4.9646951645 8.6157468771 18.3610719399
4009 3 7.5272941349 8.7033924679 18.4035267764
3900 3 7.5024815341 5.7428065758 20.4406040844
3891 1 6.1155331901 7.9334258674 20.4292343178
2638 2 6.2281826463 5.0552570679 16.3688460781
2648 3 9.8932083568 7.2756222508 16.3794169322
2650 3 11.2705593296 5.1454730989 16.3856815092
2758 3 8.7998955297 9.4112719606 16.3425440467
3899 3 8.7788677209 6.504191211 18.4740229349
3905 1 11.1632408881 6.462692467 18.4179998107
4015 1 9.9404244007 8.6671563528 18.4981157441
3774 2 2.4116108947 1.4017655949 20.4255914589
5153 3 8.7212916606 6.4845716022 24.5278081803
3768 3 -0.0758193781 1.5078172422 20.4817238543
3766 2 1.1841784859 0.7420962747 22.449545333
3770 2 2.4415621912 2.8198787105 22.4811054554
3772 1 3.6806494614 0.6157141896 22.6383285903
3786 2 7.4227049534 1.2963202309 20.4110518446
3777 1 6.2485190232 3.5504519385 20.4396006099
3780 1 4.9719854961 1.4236245232 20.5739031459
3776 2 5.0135783834 2.9118836184 22.5324859368
3778 2 6.115105316 0.5870408592 22.4668941349
3782 3 7.4655832421 2.7493329966 22.5133985509
3789 1 11.2716396183 3.5197401612 20.4676830786
3792 1 9.9088126809 1.4257073056 20.3737120259
3783 3 8.6698788484 3.4984003804 20.4200583171
3790 2 11.2540385468 0.7287323853 22.4217878957
3788 1 9.9102505442 2.859618035 22.5385247031
3784 2 8.7735595244 0.6903557043 22.4833916219
3906 2 10.0024271758 5.7738309584 20.4173297313
3878 2 -0.055957203 7.2733901443 22.4812420662
3879 3 1.1138825797 7.954942743 20.2899981564
3885 2 3.6900793716 7.9916587258 20.3872944611
4000 3 3.6874957659 9.3642481513 22.3942426122
3994 1 1.1260585666 9.5052129573 22.4707635389
3886 2 3.7545198534 5.1144875714 22.3923159869
3884 1 2.3044423894 7.2590597459 22.3940103407
3880 1 1.2844719927 4.9324414396 22.5377664119
5135 2 1.1420222055 6.5297882542 24.5418998422
5257 1 4.8641887042 8.6551714751 24.5458920281
3894 1 4.9698162017 5.806581803 20.3408234387
3890 3 4.9772408449 7.1890350959 22.4953767221
4006 3 6.1525761504 9.4191624504 22.4420879355
3896 1 7.4624074807 7.2272081383 22.488308597
3892 1 6.2147420777 4.9575994613 22.396076228
5147 3 6.1992309113 6.4398001856 24.4541346491
5263 1 7.3728830729 8.6483156395 24.5460194716
3904 3 11.2481543734 5.006596065 22.5116917239
3897 3 8.8051547669 7.9508573064 20.5616194851
3902 1 10.0230509423 7.1761961504 22.5874042485
4012 2 8.8124387551 9.3894274464 22.6134377201
3898 1 8.7114144145 4.9278104199 22.427273969
4018 1 11.2526788899 9.4264548405 22.5914617615
5137 2 2.5550699191 4.2971041249 24.514946593
5033 2 6.1821284602 2.03964622 24.521849939
5149 1 7.4925572716 4.2849880828 24.4838031998
5045 1 11.3618789006 2.1114414054 24.5376536265
5251 1 2.3389979752 8.7061844408 24.4167996438
2764 2 11.324319904 9.3757402639 16.4483773588
2644 3 8.6799973405 5.002507348 16.3437635965
2752 2 6.207336361 9.2865367349 16.4350679553
2636 3 4.9467320007 7.2224389533 16.4443321846
2630 3 2.5441200775 7.1975172602 16.3814862932
2642 1 7.4936508695 7.1853026839 16.4460942377
5019 1 1.1865180985 3.5256217941 26.6123866906
5021 1 1.1705024346 2.1435859948 24.6005260142
5025 2 3.7456190619 3.6296535983 26.6564142713
5027 2 3.6755760252 2.1112472019 24.6500170883
5028 3 2.5227795482 1.4180735997 26.678734853
5018 1 0.0731263508 2.7731766063 28.5983948638
5023 1 2.3817738984 -0.0326643914 24.6213226105
5031 2 6.2993210701 3.4793339514 26.6400777239
5022 1 0.038913948 1.4110911776 26.584165757
5034 1 5.0410858865 1.2736648658 26.6524863697
5040 2 7.52512681 1.2436240773 26.6630482945
5036 3 7.4426761916 2.8038127483 28.7255903504
5035 2 7.4806629905 -0.0385638864 24.596882821
5143 1 5.0082664724 4.3203463649 24.5622796874
5131 3 0.0393950104 4.3258954772 24.6300193599
5037 3 8.7646283435 3.4851816611 26.6045652135
5043 2 11.2408360965 3.5543273879 26.5738175596
6523 3 9.9444361746 8.5842291888 30.6774362265
5046 1 10.0975172688 1.3962786986 26.5469994069
5155 3 10.015583558 4.2349290264 24.6420938246
5038 1 8.8467617895 0.6676589663 28.6664383083
5042 1 10.0620960469 2.81899028 28.6234064929
5044 2 11.2884702738 0.6571371916 28.5801564509
5132 3 -0.0133905445 7.1879585125 28.6680041796
5133 2 1.1410264677 7.9328990983 26.5821122432
5139 2 3.5510415312 8.0263529065 26.4762716898
5142 1 2.4109588361 5.7233719535 26.5622643691
5138 3 2.5165074726 7.2953335884 28.5416898534
5248 3 1.1675314256 9.3521053592 28.6476118642
5134 1 1.1905485953 5.050104128 28.5257679597
5141 2 3.675826693 6.564983848 24.5762262801
6413 2 11.2927433711 6.3462276978 30.8497475588
5144 2 4.9596874567 7.1774921195 28.672526346
5145 3 6.1526767521 7.8843860852 26.5702429439
5148 2 4.8946019597 5.7005587178 26.6330763907
5154 2 7.4788693862 5.6422606977 26.609518282
5151 1 8.6216174923 7.8697496579 26.5890667702
5157 1 11.1877463086 7.9380663222 26.6742428347
5159 1 11.2652106131 6.4821620257 24.6065330731
5160 3 9.9802663921 5.642090813 26.6918751039
5269 2 9.9742840759 8.6258769903 24.5870201479
5272 3 11.3018217669 9.4492724965 28.7468024771
5158 3 11.2966927404 5.0406519903 28.7291369231
5020 2 1.3025785378 0.6896612356 28.6367523949
5024 1 2.6031397396 2.8748994565 28.6852218503
5026 2 3.85128221 0.5324303245 28.7088468779
6275 2 1.2717281931 1.9812393994 30.7693657249
6281 3 3.7064332083 2.0737890334 30.7743085269
6385 1 0.0204545303 4.235502837 30.6276809075
6391 1 2.5113090594 4.3519583239 30.7021543739
5152 3 8.7561044866 4.9506775453 28.7094522044
6289 3 7.594490922 -0.0719964089 30.8165397897
5030 2 5.0381426435 2.8353624733 28.6934651176
5032 3 6.3054101793 0.5994295198 28.7104069863
6287 3 6.2554698426 2.0345339449 30.7457946661
6397 1 4.9456244017 4.2163597651 30.7110539562
6403 1 7.5031865806 4.2331372478 30.7216091599
5266 2 8.7453780747 9.2443477162 28.6409847373
5156 3 10.0751517832 7.1732683 28.6498917074
6295 3 10.0300937006 -0.0440821649 30.682922856
6293 1 8.6566648228 2.0663879833 30.6561622102
6299 2 11.2145382502 1.9865408105 30.7729005227
6409 1 9.9912678873 4.196897855 30.6495450016
5254 2 3.7484867918 9.4121712381 28.615159717
5140 2 3.7068430801 5.0486562682 28.724682588
6505 2 2.4482573055 8.6484377925 30.7198535133
6395 1 3.7500807084 6.5356017971 30.7364287439
6389 2 1.2331082374 6.4765350587 30.6039296417
6387 1 1.1216945638 7.7577362277 32.6332013648
6407 1 8.7832762129 6.3758586237 30.7090774207
5260 2 6.1676773136 9.3095968729 28.613858362
6401 3 6.2340376262 6.3973015378 30.6695598084
5150 3 7.5177151958 7.1450442823 28.6831840047
5146 2 6.2577921221 5.0548435536 28.590065004
6517 3 7.4819972095 8.6567357457 30.7611535821
6511 3 5.0107277208 8.6693627914 30.8293563266
6273 2 1.2071052673 3.6140709771 32.7315160169
6291 3 8.7508164243 3.5355108362 32.6557088201
6393 3 3.6773572166 7.9424606834 32.7014439326
6276 3 -0.0629331485 1.3156351983 32.6835758044
6405 1 8.7060229426 7.9399577841 32.7378585553
6414 1 9.9229001833 5.6534051699 32.720206904
5039 1 8.7341566218 2.0922921665 24.5885545383
7537 2 5.0782299436 0.0144585279 36.7802000526
6274 2 1.2057281805 0.8179152418 34.838617343
6278 2 2.4910538688 2.7941958008 34.8608710607
6280 2 3.689131736 0.5944167392 34.9346351035
7531 1 2.4109711459 -0.0719131829 36.8872435851
6279 3 3.731795905 3.5138042588 32.7948377353
6284 1 4.9193754988 2.797572713 34.826515693
6286 2 6.1518982809 0.6794962676 34.7613232714
6290 2 7.4663349707 2.885991864 34.8118040569
7657 2 7.5137933711 4.4416878928 36.8939759799
6288 2 5.0233804633 1.4738930036 32.7890216734
7753 3 -0.0367070475 8.6518316429 36.8055470473
6292 2 8.7770688708 0.6641613612 34.8913402599
6296 2 9.9499776029 2.8167022948 34.8621131975
6297 2 11.3126907539 3.543371375 32.7918889359
6298 1 11.2476716753 0.6923273642 34.8714994092
7549 2 10.0114191605 -0.0483759017 36.8312074129
7547 1 8.8365233133 2.0999984092 36.9948615176
6300 1 10.0095484729 1.4104771095 32.7903997452
7530 3 -0.0293059854 1.3658736844 38.9149071462
6388 3 1.1180124142 5.0183955897 34.763488048
6392 3 2.4154768846 7.2400905313 34.8324666356
6394 2 3.6701618013 5.0095209553 34.8689432185
6502 1 1.189512497 9.2680836191 34.7693209526
6508 2 3.6812097174 9.4381228707 34.7409181365
6272 3 -0.0484139993 2.842428762 34.7429404412
6398 1 4.9494121524 7.1995265009 34.8338062029
6400 3 6.1258532558 5.0388412936 34.9331687379
6404 3 7.549070926 7.1098897493 34.8210621668
6514 1 6.240188086 9.3421061947 34.8658058062
7765 3 4.8409005472 8.6706126205 36.9070841709
6408 2 7.4213558306 5.7769913968 32.8405588509
7665 1 11.244962697 7.9240031855 38.9262494762
6406 3 8.7181371963 5.025176539 34.8798751732
6410 2 10.0145352432 7.1028108383 34.7368532132
6412 3 11.2929607589 4.9389458839 34.8358043696
7659 2 8.6895643129 7.9743440378 39.0007732365
6520 3 8.7323030684 9.2741454061 34.8111269118
6526 3 11.1738915167 9.3803845437 34.8579562066
7661 1 8.7580499974 6.6085190863 36.8405805466
7645 3 2.5071949284 4.2090418483 36.8620445556
7639 3 -0.0734476203 4.3336990077 36.8247000701
7529 1 1.1585982845 2.2025251074 36.8117890954
7535 3 3.7190636227 2.0475782334 36.8927378707
7527 3 1.2152639976 3.5198041269 38.912352082
7528 2 1.1685976462 0.6989354772 40.9543499884
7532 3 2.4344590807 2.7959188426 40.898530845
7533 3 3.7561092382 3.5775313158 38.8896415544
7534 2 3.755009164 0.6960359967 40.9365989881
7536 3 2.4676625026 1.4391958166 38.920967642
7541 3 6.3919581952 2.0697913623 36.896473413
7651 2 5.0547066941 4.3407704135 36.878600142
7548 3 7.6006198826 1.5218264002 39.0509229798
7542 2 5.073666619 1.4790286311 38.8907793814
7539 3 6.3225922351 3.6116895389 38.9761506333
7668 1 10.0340283821 5.7182677108 38.9377332422
7553 1 11.3488794446 2.150309703 36.9053298489
7663 1 10.0224581762 4.250635639 36.8534468492
7554 1 10.0629156068 1.3987473299 38.9962084255
7551 1 11.2214435285 3.6442069846 38.8910473156
7545 2 8.7300177194 3.5961350654 38.9340955713
7667 2 11.2648755966 6.3202729823 36.9021339178
7759 2 2.3699480968 8.7455543173 36.9081586585
7650 3 2.4263357954 5.7510100763 38.7653190578
7647 3 3.7038353559 7.9225808461 38.9561826862
7641 2 1.1472251051 7.9293724237 38.859774839
7643 2 1.1219451129 6.4661489646 36.8330405148
7649 1 3.6178654276 6.4681110396 36.7992657403
7655 2 6.2892907016 6.5684749935 36.9472900409
7771 2 7.4924364368 8.6149914682 36.9006738948
7653 1 6.1522966268 7.8720758545 38.9674730743
7656 3 4.9051131582 5.7620843389 38.912785622
7662 2 7.575438362 5.752778291 38.9764268872
7777 1 10.0104952048 8.6876130503 36.9194498058
7538 3 5.0028097933 3.0317730708 40.9194612098
7550 3 9.990998175 2.9979626357 40.8903198956
7648 3 3.5765490793 5.1397208852 40.9434405822
7762 1 3.6128429456 9.3815219246 40.9637906364
7756 1 1.0917693226 9.3862050365 40.8257658787
7646 3 2.2714766228 7.1809968518 40.881737391
7642 3 1.0809203761 4.9470919467 40.9640602572
7658 3 7.4621090708 7.2486155269 40.9379090711
7654 1 6.208094049 5.0734976507 40.9606239825
7666 1 11.3347098287 5.0666079683 40.9607230742
7774 3 8.7278831442 9.4114014244 40.9501819109
6411 1 11.180731621 7.8913598901 32.7722892736
6282 2 2.5532209462 1.3856600874 32.8014700775
6285 1 6.3545392767 3.5931758614 32.8781216574
6294 1 7.4861089599 1.2847572867 32.8491234825
6396 3 2.4558954334 5.6527676977 32.7691785643
6402 1 4.8863185083 5.7207834842 32.7931532759
6399 2 6.302934121 7.8996150898 32.7705049319
8783 2 1.2640141828 2.0957610219 42.9352281548
8789 3 3.8172073112 2.0822495314 43.007565519
8899 1 2.3419236665 4.277810953 42.9391057451
8781 3 1.2155810176 3.4755237668 44.9604727159
8797 3 7.4845716331 -0.0451247863 43.0644330152
8795 1 6.2959652086 2.1640670792 43.0452946057
8905 1 4.9195339513 4.2799648972 43.0295424266
8911 2 7.5443523337 4.348446468 43.0582790708
8803 2 9.9841205357 -0.050768688 43.1076723278
7544 2 7.5307367921 2.9149492957 41.1051293791
8801 1 8.7594040912 2.0955822908 43.111761866
8807 2 11.1970164569 2.1200928541 43.0627486605
8917 3 10.0546841191 4.3159817438 43.0315019771
7552 3 11.2384369343 0.8174933699 41.0128811031
8791 1 5.0388181934 -0.0312461763 43.1188903682
8805 3 11.2079462304 3.5191891218 45.0580586394
8808 2 9.9427929267 1.3309425889 45.0779100613
8897 3 1.1553566296 6.3943829705 43.0564193739
8903 2 3.7261196645 6.4761777226 42.9893637473
9013 1 2.3765723616 8.576824031 42.9835065999
8784 1 -0.0402442056 1.3262084742 45.0907284831
9028 1 8.6970943545 9.4299959961 47.1366936296
8920 3 11.2215484772 4.9698095906 47.229665121
8913 3 8.7400142172 7.9550732715 45.0927723509
9034 2 11.1803062554 9.411281832 47.1764333677
8909 1 6.2049149918 6.502899348 43.0185659503
9019 3 4.9144608218 8.6558413829 43.0228337692
9025 2 7.4736002934 8.6874610244 43.0391463284
7768 3 6.1770573973 9.3696454413 41.0119559376
8914 2 8.6281153944 5.127980847 47.2164140212
8918 1 9.9520369936 7.1964285325 47.171310866
7652 2 4.9422249129 7.2516975445 41.0264894818
8910 2 4.949856846 5.718916824 45.04841887
8907 3 6.1408369716 8.0086828407 45.1395887576
8919 1 11.2321392305 8.0088182342 45.0447348155
8922 3 9.9340219037 5.8257827351 45.1462002665
8915 3 8.7306722481 6.5388696968 43.0681498087
8921 1 11.265975483 6.4459926128 43.1276992585
9031 1 10.0454704088 8.581942801 42.9850485935
7664 2 9.9981337012 7.2100984151 41.0593676649
8906 2 4.9603620843 7.1304469855 47.0760183686
8908 2 6.1411655736 4.9705152459 47.218820251
8790 1 2.4920476982 1.3473477571 45.0318170193
8782 3 1.126731289 0.5763457679 47.1317544167
8786 2 2.4371897111 2.7494911259 47.1445502092
8787 2 3.5681236241 3.5026717493 45.1909340979
8788 2 3.6808893814 0.6294820779 47.1927636828
121 2 2.3821536949 4.173554893 49.1567900789
8793 3 6.2366269413 3.6286031187 45.0377997535
8796 1 5.0666601863 1.3930983818 45.062241167
8802 1 7.5880067504 1.4320376818 45.1221594109
8792 2 4.8768753083 2.8749509151 47.1333063009
8794 2 6.1746768907 0.6926181636 47.0857006489
8798 3 7.5274642015 2.8947178006 47.1413113203
127 1 4.9121969766 4.2106531064 49.1696669059
8799 3 8.7666324996 3.6527498781 45.2088513834
8800 2 8.7060278483 0.6529008521 47.1965513356
8804 2 9.9751186153 2.8674151912 47.2340569997
8806 1 11.2965414776 0.5698556058 47.1469446407
8895 1 1.1132748633 7.8357401449 45.1111712031
8901 3 3.6099611286 7.9040399044 45.0287222823
8904 3 2.3799640491 5.6127843345 44.9872292107
8894 3 -0.0762164237 7.1827830677 47.15696212
8896 1 1.0953598115 5.0189464037 47.202258015
8912 3 7.4827701384 7.3029528693 47.0984193983
8900 3 2.5723083683 7.1481012086 47.0527344367
8902 1 3.5590888801 5.0629060793 47.168305397
9010 1 1.16761673 9.3887664919 47.1116922306
9016 1 3.7241063579 9.3962906831 47.1122667889
9022 3 6.276228873 9.3391539942 47.1183163741
8916 1 7.4991311099 5.8279594696 45.1463965578
25 3 9.9150370587 0.0254227136 49.1542643601
1 2 -0.0722238395 -0.0347433699 49.1722479346
17 3 6.1432780265 2.0382466355 49.1282516832
235 1 2.4103138671 8.561734498 49.1211546072
119 1 1.1370449682 6.3987794489 49.1161498901
131 3 6.157741006 6.5332324592 49.1514973288
241 1 4.8965453052 8.525510626 49.0588107437
7660 1 8.7367296812 5.0341014306 41.0018688971
7780 2 11.2630398415 9.3603069011 40.9923919432
7540 1 6.272182345 0.756441352 40.9827882856
7546 3 8.6538925981 0.7487048378 41.0935030082
231 2 1.19629939 12.2548980127 1.9723941351
237 1 3.6555035547 12.2062064556 1.9474253097
240 1 2.2917951981 10.007941889 2.0380514295
344 3 -0.0772542853 15.8133823185 3.9758506211
243 1 6.2543832496 12.2328064217 1.9700283646
246 1 4.9499789711 10.0353189181 1.9968076591
252 2 7.5245303477 10.1405874327 2.0661227929
248 3 7.5233149293 11.6330417629 4.0158834812
245 3 6.1518626856 10.8006158391 -0.0653495507
230 3 -0.062140065 11.5946543352 4.0453798072
249 3 8.7012271511 12.3101608574 1.9025112606
255 1 11.2150630983 12.2280417819 1.9916590182
258 3 9.97786192 10.0633281836 2.0051784356
367 2 9.8851976442 13.0610574102 -0.0659682881
254 3 10.0164871714 11.6380280089 4.0139418336
348 1 -0.0457849027 14.4748477042 1.8685695548
345 1 1.2470657274 16.5655260488 1.9461125288
351 1 3.7381918124 16.6094965102 1.930350375
354 1 2.4999906103 14.4060305501 1.9394529602
463 3 2.5053442029 17.2913847699 -0.0592722532
468 1 2.3859174024 18.8560597901 1.9450273772
460 2 1.1864550118 18.0343537443 4.0447988469
1735 3 10.0687310298 17.3994987227 6.1882451334
357 2 6.2122308592 16.5637717774 1.8231016972
360 2 4.9505324811 14.4557869196 1.8373612952
366 3 7.444324291 14.4697198362 1.939179535
474 2 4.920204533 18.8499041346 2.0461433906
480 1 7.3919740947 18.8140499729 2.0206641684
1625 1 11.3100759165 15.2620151293 6.1066153536
1619 2 8.8171042048 15.2137820497 6.0860100078
363 2 8.7287459283 16.7365625532 1.9283168771
484 3 11.3488326326 18.0751221128 4.111927211
369 3 11.2575956297 16.6224148855 1.9672574034
371 3 11.385065433 15.1848357194 -0.028074798
372 1 9.9846454722 14.3936370068 1.9335134525
481 2 9.9918185086 17.3243504457 -0.0785782568
486 2 10.0106382699 18.7191302763 1.9572840534
1488 2 0.0220190203 10.1214445742 8.0710901493
236 1 2.468909334 11.5367568942 3.9591585208
346 1 1.2274560348 13.6460067767 4.0268541762
352 1 3.7351265064 13.7979315105 3.9744805232
1487 1 1.1668819041 10.8552717834 6.060124936
1493 3 3.7058417788 10.8451339954 6.0516224265
1603 3 2.4702349433 13.0291569125 6.079868606
358 1 6.2370766449 13.9012965754 3.9230970389
242 3 5.0273637146 11.5501055225 4.1170823163
1499 1 6.2912988741 10.8592348439 6.051856183
1609 1 4.9863431068 12.9848141747 5.9907318418
1615 1 7.4886952158 13.033383128 6.0167752032
1497 1 6.202219645 12.244698188 8.1099674408
368 2 9.9865811014 15.9015373725 4.0484024497
370 1 11.2659341681 13.6826056859 3.9412936991
364 2 8.758707645 13.758565191 4.0813481878
1505 2 8.7481562479 10.8211937323 6.173694697
1511 1 11.1578311377 10.8211860907 6.0793337576
1621 2 10.0415359389 13.0158075322 6.0088032667
478 3 8.8669341526 18.1253571657 4.0338193201
1717 1 2.4132639927 17.3309641162 6.0412288937
1607 1 3.7447360538 15.1323369454 6.0185888542
1601 1 1.1700803606 15.1389623597 6.1029502706
350 2 2.333857159 15.7978498895 4.0042789412
466 1 3.6728097781 18.1748070706 3.9831396883
1608 3 2.4430789722 14.522884327 8.1028080134
1599 3 1.1812669042 16.6473292974 8.0524559192
1605 1 3.6681513978 16.6466530179 8.1003517778
1729 1 7.4106246714 17.4509402349 6.010823608
1723 1 4.9095315119 17.4279326377 6.0455683005
1613 3 6.2520260337 15.2738257393 6.034605404
472 2 6.2145386863 18.0999090295 4.0475569742
362 1 7.4637071629 15.9919446298 3.9919925326
356 3 4.9303259366 15.9531293929 4.0633310597
1611 1 6.2243015455 16.6378915546 8.0702477567
1734 1 7.5221168403 18.8406850844 8.0942113109
1620 1 7.4229676203 14.3621432652 8.0587370626
1491 1 3.7348537031 12.3442304652 8.0900918557
1494 2 2.483103861 10.0966446458 8.0824985184
1500 1 4.9101888677 10.1244093296 8.0416598154
1614 1 4.9360506872 14.4443377822 8.0149887927
1722 2 2.4539232316 18.7594246745 8.0595442156
1740 1 10.0784400885 18.911585274 8.0671837866
1623 3 11.4128867588 16.7492373646 8.1121104976
475 1 7.4765102604 17.404038306 -0.0700852695
239 1 3.7253281187 10.7490871568 -0.0755244679
233 2 1.1760314566 10.7729889407 -0.0507201162
355 3 4.9628625414 12.9647643328 -0.0051947814
257 1 11.1070357609 10.7991799217 -0.0605765758
1485 3 1.1493114833 12.2562043531 8.1327466579
1490 2 2.4211290469 11.5039039243 10.1869174839
2742 2 -0.0474200936 10.1477607748 14.3544151579
2994 2 9.9887237259 18.8857388056 14.2798104144
1600 3 1.093499657 13.7827770153 10.239757795
1606 3 3.7075405345 13.8630737479 10.1962049888
2747 1 3.6602553199 10.9510585313 12.2094834863
2873 1 8.8384468068 15.1682891129 12.1419854935
1496 1 4.9306938647 11.485337315 10.0975491718
2879 1 11.3651958094 15.1513925533 12.288288856
1502 1 7.4804684016 11.430166371 10.2620293604
1612 3 6.1355621888 13.6228401321 10.1311586243
2880 1 10.0161604228 14.4621893942 14.3120375458
2753 1 6.2366758708 10.85680811 12.2283068405
2863 2 5.0464505039 12.9559693126 12.1846567299
1503 3 8.8375529091 12.3085579498 8.1616454622
1508 2 10.1093450485 11.6199217784 10.2314740329
1509 1 11.3026448773 12.317909102 8.2161830534
1512 1 10.1640189964 10.1198964364 8.2081560198
1618 3 8.7663125678 13.6897672597 10.1649764143
1624 1 11.2727647134 13.7704569524 10.2748448766
2759 3 8.6820099482 10.7915426192 12.2723959015
2765 2 11.3824485325 10.8490027825 12.1819676702
2875 2 10.0379663325 13.0101507885 12.3271209846
1598 2 0.0026741852 15.8958899323 10.1138689996
1604 2 2.4272765851 15.9697249823 10.1338284947
1714 1 1.1721093009 18.0768802511 10.0810744189
1720 1 3.7535382225 18.1442923457 10.2020874326
2855 1 1.2376350568 15.2174931983 12.1659791616
2877 2 11.2772367225 16.6176811671 14.3227541876
1610 1 4.9420663174 15.9723957139 10.107547209
1616 1 7.4362632054 15.7479201884 10.2142713217
1726 1 6.3074198033 18.0329948636 10.1421367474
2867 2 6.215240845 15.1368605407 12.3196081374
2989 2 9.9729633608 17.4260693064 12.2285188143