ITEM: TIMESTEP
0
ITEM: NUMBER OF ATOMS
1000
ITEM: BOX BOUNDS xy xz yz pp pp pp
                     -6.38377490803649e-01 1.35158377490802e+02 0.00000000000000e+00
-6.38377490803649e-01	1.35158377490802e+02	0.00000000000000e+00
-6.38377490803649e-01	1.35158377490802e+02	0.00000000000000e+00
ITEM: ATOMS id type x y z p1 p2 p3
1 1 -2.937e-01 -2.860e-01 -4.329e-01 0.33 0.34 0.33
2 3 1.539e+00 1.449e+00 -2.465e-01 0.33 0.34 0.33
3 2 1.552e+00 -4.337e-01 1.456e+00 0.34 0.33 0.33
4 1 -2.443e-01 1.346e+00 1.425e+00 0.33 0.34 0.33
5 3 3.473e+00 -4.678e-01 -2.204e-01 0.34 0.33 0.33
6 2 5.040e+00 1.521e+00 -1.786e-01 0.34 0.34 0.32
7 2 5.018e+00 -3.313e-01 1.568e+00 0.34 0.33 0.33
8 3 3.281e+00 1.463e+00 1.457e+00 0.34 0.34 0.33
9 2 6.798e+00 -3.099e-01 -1.732e-01 0.34 0.33 0.33
10 1 8.775e+00 1.576e+00 -3.184e-01 0.34 0.34 0.32
11 1 8.782e+00 -3.093e-01 1.399e+00 0.34 0.34 0.32
12 1 7.087e+00 1.466e+00 1.611e+00 0.33 0.34 0.33
13 2 1.046e+01 -3.220e-01 -4.154e-01 0.34 0.34 0.32
14 1 1.206e+01 1.504e+00 -3.594e-01 0.34 0.33 0.32
15 3 1.218e+01 -2.989e-01 1.413e+00 0.34 0.33 0.32
16 2 1.040e+01 1.519e+00 1.510e+00 0.34 0.33 0.33
17 2 1.394e+01 -3.671e-01 -3.347e-01 0.35 0.33 0.32
18 1 1.569e+01 1.452e+00 -2.481e-01 0.34 0.33 0.32
19 1 1.567e+01 -3.142e-01 1.482e+00 0.34 0.33 0.32
20 3 1.391e+01 1.429e+00 1.629e+00 0.34 0.33 0.32
21 1 1.756e+01 -2.637e-01 -1.958e-01 0.34 0.34 0.33
22 2 1.938e+01 1.546e+00 -1.922e-01 0.34 0.33 0.32
23 3 1.934e+01 -1.872e-01 1.536e+00 0.34 0.33 0.32
24 2 1.758e+01 1.395e+00 1.690e+00 0.34 0.33 0.32
25 3 2.116e+01 -2.471e-01 -2.295e-01 0.34 0.33 0.33
26 3 2.301e+01 1.480e+00 -2.611e-01 0.34 0.34 0.33
27 1 2.288e+01 -2.115e-01 1.520e+00 0.34 0.33 0.32
28 2 2.119e+01 1.626e+00 1.459e+00 0.34 0.34 0.32
29 2 2.462e+01 -2.581e-01 -2.323e-01 0.34 0.34 0.32
30 2 2.645e+01 1.385e+00 -3.314e-01 0.34 0.34 0.32
31 3 2.654e+01 -4.719e-01 1.524e+00 0.34 0.34 0.32
32 2 2.480e+01 1.467e+00 1.565e+00 0.34 0.34 0.32
33 2 2.820e+01 -2.515e-01 -2.770e-01 0.34 0.34 0.32
34 3 3.014e+01 1.548e+00 -3.432e-01 0.34 0.33 0.32
35 3 3.016e+01 -3.195e-01 1.284e+00 0.34 0.34 0.32
36 3 2.823e+01 1.650e+00 1.315e+00 0.34 0.34 0.32
37 2 3.211e+01 -2.255e-01 -2.814e-01 0.34 0.33 0.33
38 1 3.367e+01 1.620e+00 -3.865e-01 0.34 0.33 0.33
39 2 3.386e+01 -1.274e-01 1.332e+00 0.35 0.33 0.33
40 2 3.189e+01 1.574e+00 1.300e+00 0.35 0.33 0.32
41 3 3.559e+01 -2.498e-01 -3.361e-01 0.34 0.32 0.33
42 2 3.711e+01 1.593e+00 -1.420e-01 0.34 0.33 0.33
43 1 3.718e+01 -4.430e-01 1.579e+00 0.34 0.33 0.33
44 3 3.551e+01 1.570e+00 1.530e+00 0.34 0.33 0.33
45 3 3.916e+01 -2.443e-01 -2.267e-01 0.35 0.32 0.33
46 1 4.082e+01 1.472e+00 -1.998e-01 0.34 0.33 0.33
47 3 4.085e+01 -3.189e-01 1.588e+00 0.35 0.33 0.33
48 2 3.908e+01 1.407e+00 1.572e+00 0.34 0.33 0.33
49 2 4.251e+01 -3.343e-01 -2.816e-01 0.34 0.32 0.34
50 2 4.432e+01 1.518e+00 -3.755e-01 0.34 0.32 0.34
51 3 4.432e+01 -2.351e-01 1.500e+00 0.34 0.32 0.34
52 2 4.264e+01 1.490e+00 1.429e+00 0.34 0.32 0.33
53 2 4.600e+01 -2.252e-01 -3.160e-01 0.34 0.32 0.34
54 1 4.793e+01 1.484e+00 -3.599e-01 0.34 0.32 0.34
55 1 4.796e+01 -2.882e-01 1.608e+00 0.34 0.32 0.34
56 3 4.602e+01 1.434e+00 1.470e+00 0.35 0.32 0.34
57 1 4.967e+01 -1.767e-01 -2.836e-01 0.34 0.32 0.34
58 1 5.147e+01 1.578e+00 -4.097e-01 0.34 0.32 0.34
59 3 5.144e+01 -1.429e-01 1.434e+00 0.34 0.32 0.34
60 3 4.987e+01 1.454e+00 1.522e+00 0.34 0.32 0.34
61 1 5.333e+01 -2.655e-01 -3.387e-01 0.33 0.32 0.35
62 2 5.504e+01 1.395e+00 -4.523e-01 0.34 0.31 0.34
63 1 5.506e+01 -3.051e-01 1.520e+00 0.34 0.32 0.34
64 3 5.322e+01 1.495e+00 1.477e+00 0.34 0.32 0.34
65 1 5.684e+01 -3.534e-01 -2.588e-01 0.34 0.31 0.35
66 1 5.857e+01 1.394e+00 -1.956e-01 0.33 0.32 0.35
67 2 5.871e+01 -4.134e-01 1.622e+00 0.34 0.31 0.35
68 2 5.673e+01 1.496e+00 1.626e+00 0.34 0.32 0.34
69 1 6.047e+01 -3.022e-01 -1.864e-01 0.33 0.32 0.35
70 2 6.215e+01 1.416e+00 -2.414e-01 0.34 0.32 0.35
71 2 6.232e+01 -2.399e-01 1.603e+00 0.33 0.32 0.35
72 1 6.042e+01 1.567e+00 1.448e+00 0.34 0.31 0.35
73 3 6.396e+01 -3.523e-01 -2.839e-01 0.33 0.32 0.35
74 1 6.564e+01 1.462e+00 -1.896e-01 0.33 0.32 0.35
75 1 6.582e+01 -3.147e-01 1.455e+00 0.33 0.32 0.35
76 2 6.395e+01 1.384e+00 1.671e+00 0.33 0.32 0.35
77 3 6.758e+01 -1.367e-01 -2.726e-01 0.33 0.32 0.35
78 1 6.944e+01 1.626e+00 -2.467e-01 0.32 0.32 0.36
79 2 6.944e+01 -2.048e-01 1.589e+00 0.32 0.32 0.35
80 1 6.752e+01 1.430e+00 1.605e+00 0.33 0.32 0.35
81 1 7.122e+01 -1.587e-01 -2.834e-01 0.33 0.32 0.35
82 2 7.289e+01 1.630e+00 -3.407e-01 0.32 0.33 0.34
83 2 7.301e+01 -1.992e-01 1.390e+00 0.33 0.33 0.34
84 1 7.124e+01 1.598e+00 1.551e+00 0.32 0.32 0.35
85 3 7.469e+01 -2.223e-01 -2.794e-01 0.33 0.33 0.34
86 3 7.654e+01 1.375e+00 -4.469e-01 0.32 0.34 0.34
87 3 7.648e+01 -2.476e-01 1.361e+00 0.33 0.33 0.34
88 1 7.475e+01 1.568e+00 1.478e+00 0.33 0.33 0.34
89 1 7.828e+01 -2.490e-01 -2.141e-01 0.32 0.34 0.34
90 3 8.006e+01 1.499e+00 -2.346e-01 0.32 0.34 0.34
91 1 8.002e+01 -2.963e-01 1.456e+00 0.32 0.34 0.34
92 1 7.826e+01 1.521e+00 1.482e+00 0.33 0.33 0.34
93 1 8.181e+01 -2.910e-01 -2.213e-01 0.32 0.34 0.34
94 1 8.358e+01 1.536e+00 -3.006e-01 0.33 0.33 0.34
95 2 8.371e+01 -2.921e-01 1.560e+00 0.33 0.34 0.33
96 2 8.195e+01 1.533e+00 1.682e+00 0.33 0.34 0.34
97 3 8.529e+01 -4.054e-01 -3.201e-01 0.32 0.34 0.34
98 1 8.711e+01 1.404e+00 -1.900e-01 0.33 0.34 0.34
99 1 8.713e+01 -4.666e-01 1.564e+00 0.32 0.35 0.34
100 3 8.524e+01 1.449e+00 1.453e+00 0.32 0.34 0.34
101 2 8.893e+01 -4.236e-01 -2.760e-01 0.32 0.34 0.34
102 3 9.082e+01 1.222e+00 -3.608e-01 0.33 0.35 0.33
103 3 9.087e+01 -5.383e-01 1.506e+00 0.33 0.34 0.33
104 2 8.889e+01 1.226e+00 1.467e+00 0.33 0.34 0.33
105 2 9.264e+01 -3.688e-01 -3.344e-01 0.34 0.34 0.32
106 3 9.435e+01 1.467e+00 -4.091e-01 0.33 0.34 0.32
107 1 9.432e+01 -3.158e-01 1.426e+00 0.33 0.35 0.32
108 1 9.252e+01 1.401e+00 1.384e+00 0.33 0.34 0.33
109 1 9.619e+01 -3.702e-01 -2.775e-01 0.33 0.35 0.32
110 1 9.794e+01 1.382e+00 -2.024e-01 0.33 0.34 0.32
111 3 9.791e+01 -1.748e-01 1.556e+00 0.33 0.35 0.32
112 2 9.609e+01 1.362e+00 1.452e+00 0.33 0.34 0.33
113 2 9.961e+01 -2.972e-01 -3.688e-01 0.33 0.35 0.32
114 1 1.013e+02 1.474e+00 -1.545e-01 0.33 0.34 0.33
115 3 1.014e+02 -4.262e-01 1.543e+00 0.33 0.34 0.32
116 2 9.972e+01 1.347e+00 1.624e+00 0.33 0.34 0.33
117 3 1.032e+02 -1.206e-01 -9.956e-02 0.33 0.35 0.33
118 3 1.051e+02 1.522e+00 -5.149e-01 0.32 0.34 0.34
119 1 1.051e+02 -1.750e-01 1.557e+00 0.33 0.34 0.33
120 3 1.032e+02 1.553e+00 1.665e+00 0.33 0.35 0.33
121 2 1.069e+02 -1.308e-01 -3.036e-01 0.32 0.35 0.33
122 2 1.088e+02 1.627e+00 -3.599e-01 0.32 0.34 0.34
123 1 1.086e+02 -2.395e-01 1.481e+00 0.33 0.34 0.33
124 3 1.070e+02 1.575e+00 1.375e+00 0.32 0.35 0.33
125 2 1.103e+02 -1.998e-01 -3.922e-01 0.32 0.34 0.34
126 1 1.123e+02 1.446e+00 -3.251e-01 0.32 0.34 0.34
127 3 1.123e+02 -4.255e-01 1.451e+00 0.32 0.35 0.33
128 1 1.106e+02 1.384e+00 1.607e+00 0.32 0.35 0.33
129 3 1.142e+02 -2.373e-01 -1.694e-01 0.32 0.34 0.34
130 3 1.159e+02 1.595e+00 -2.730e-01 0.31 0.34 0.34
131 3 1.159e+02 -2.671e-01 1.632e+00 0.32 0.35 0.34
132 2 1.141e+02 1.487e+00 1.451e+00 0.31 0.34 0.34
133 2 1.175e+02 -1.576e-01 -2.844e-01 0.32 0.34 0.34
134 1 1.193e+02 1.493e+00 -2.464e-01 0.32 0.34 0.34
135 3 1.193e+02 -1.155e-01 1.474e+00 0.32 0.34 0.34
136 3 1.176e+02 1.484e+00 1.537e+00 0.31 0.34 0.34
137 2 1.212e+02 -2.786e-01 -2.338e-01 0.32 0.34 0.34
138 3 1.231e+02 1.484e+00 -1.747e-01 0.32 0.34 0.34
139 3 1.232e+02 -3.441e-01 1.404e+00 0.32 0.34 0.34
140 1 1.211e+02 1.480e+00 1.531e+00 0.32 0.34 0.34
141 1 1.249e+02 -2.006e-01 -2.650e-01 0.32 0.34 0.34
142 2 1.266e+02 1.468e+00 -3.196e-01 0.32 0.34 0.34
143 1 1.266e+02 -2.114e-01 1.518e+00 0.32 0.34 0.34
144 1 1.250e+02 1.579e+00 1.512e+00 0.32 0.34 0.34
145 3 1.285e+02 -2.792e-01 -3.048e-01 0.33 0.34 0.34
146 2 1.302e+02 1.639e+00 -1.494e-01 0.32 0.34 0.34
147 1 1.302e+02 -2.794e-01 1.472e+00 0.33 0.34 0.34
148 3 1.283e+02 1.514e+00 1.474e+00 0.32 0.34 0.34
149 1 1.320e+02 -2.751e-01 -2.105e-01 0.33 0.34 0.33
150 3 1.337e+02 1.677e+00 -2.451e-01 0.33 0.34 0.33
151 1 1.338e+02 -3.740e-01 1.460e+00 0.33 0.34 0.33
152 3 1.322e+02 1.667e+00 1.510e+00 0.32 0.34 0.33
153 2 -3.126e-01 3.439e+00 -1.781e-01 0.32 0.34 0.33
154 1 1.455e+00 5.175e+00 -2.387e-01 0.33 0.34 0.33
155 3 1.527e+00 3.314e+00 1.509e+00 0.33 0.34 0.33
156 3 -2.476e-01 5.118e+00 1.630e+00 0.33 0.35 0.33
157 1 3.378e+00 3.269e+00 -3.005e-01 0.33 0.34 0.33
158 1 5.174e+00 4.984e+00 -2.478e-01 0.33 0.34 0.33
159 1 5.124e+00 3.274e+00 1.653e+00 0.33 0.34 0.33
160 2 3.312e+00 5.040e+00 1.428e+00 0.33 0.34 0.33
161 2 6.931e+00 3.206e+00 -2.778e-01 0.33 0.34 0.33
162 1 8.595e+00 5.076e+00 -3.033e-01 0.34 0.34 0.33
163 2 8.751e+00 3.339e+00 1.517e+00 0.34 0.34 0.32
164 3 6.962e+00 5.143e+00 1.400e+00 0.33 0.34 0.33
165 3 1.052e+01 3.388e+00 -1.482e-01 0.34 0.34 0.32
166 2 1.223e+01 5.069e+00 -1.373e-01 0.34 0.34 0.33
167 3 1.216e+01 3.095e+00 1.705e+00 0.34 0.33 0.33
168 2 1.042e+01 5.167e+00 1.520e+00 0.34 0.34 0.32
169 1 1.392e+01 3.325e+00 -1.127e-01 0.34 0.33 0.32
170 1 1.580e+01 5.027e+00 -2.613e-01 0.34 0.33 0.33
171 1 1.576e+01 3.113e+00 1.495e+00 0.34 0.33 0.33
172 3 1.417e+01 5.054e+00 1.605e+00 0.34 0.33 0.33
173 2 1.756e+01 3.238e+00 -3.976e-01 0.34 0.33 0.33
174 2 1.928e+01 5.015e+00 -3.961e-01 0.34 0.34 0.33
175 1 1.933e+01 3.440e+00 1.573e+00 0.34 0.34 0.32
176 1 1.750e+01 5.040e+00 1.485e+00 0.34 0.33 0.33
177 2 2.119e+01 3.348e+00 -1.547e-01 0.34 0.34 0.33
178 1 2.277e+01 5.117e+00 -2.880e-01 0.34 0.34 0.32
179 2 2.309e+01 3.372e+00 1.555e+00 0.34 0.33 0.32
180 2 2.118e+01 5.260e+00 1.547e+00 0.34 0.33 0.32
181 3 2.463e+01 3.303e+00 -2.078e-01 0.34 0.34 0.32
182 1 2.643e+01 5.074e+00 -1.690e-01 0.34 0.34 0.32
183 3 2.646e+01 3.321e+00 1.392e+00 0.34 0.34 0.32
184 3 2.459e+01 5.003e+00 1.691e+00 0.34 0.33 0.33
185 2 2.817e+01 3.252e+00 -1.573e-01 0.35 0.34 0.32
186 2 3.001e+01 5.079e+00 -2.412e-01 0.34 0.33 0.33
187 2 3.007e+01 3.205e+00 1.434e+00 0.35 0.33 0.32
188 2 2.825e+01 5.085e+00 1.452e+00 0.34 0.33 0.33
189 1 3.193e+01 3.359e+00 -2.776e-01 0.35 0.33 0.32
190 1 3.365e+01 5.099e+00 -2.375e-01 0.34 0.33 0.33
191 3 3.384e+01 3.555e+00 1.670e+00 0.35 0.33 0.32
192 1 3.182e+01 5.083e+00 1.596e+00 0.34 0.33 0.32
193 1 3.542e+01 3.398e+00 -4.172e-01 0.34 0.33 0.32
194 1 3.726e+01 4.998e+00 -2.452e-01 0.34 0.33 0.33
195 1 3.727e+01 3.291e+00 1.482e+00 0.34 0.33 0.33
196 2 3.549e+01 5.107e+00 1.479e+00 0.34 0.33 0.33
197 2 3.904e+01 3.300e+00 -3.365e-01 0.34 0.33 0.33
198 2 4.089e+01 5.115e+00 -3.248e-01 0.34 0.33 0.33
199 1 4.082e+01 3.345e+00 1.681e+00 0.34 0.33 0.33
200 2 3.908e+01 5.150e+00 1.614e+00 0.35 0.33 0.33
201 3 4.246e+01 3.489e+00 -2.271e-01 0.33 0.33 0.34
202 3 4.433e+01 4.963e+00 -1.891e-01 0.34 0.33 0.34
203 2 4.434e+01 3.134e+00 1.515e+00 0.34 0.33 0.34
204 2 4.269e+01 5.100e+00 1.343e+00 0.34 0.33 0.34
205 1 4.613e+01 3.335e+00 -1.679e-01 0.34 0.33 0.33
206 2 4.788e+01 5.075e+00 -2.511e-01 0.34 0.33 0.33
207 3 4.799e+01 3.245e+00 1.497e+00 0.34 0.33 0.33
208 2 4.617e+01 4.951e+00 1.635e+00 0.33 0.33 0.34
209 1 4.971e+01 3.361e+00 -3.011e-01 0.34 0.32 0.33
210 1 5.151e+01 5.166e+00 -2.484e-01 0.34 0.32 0.34
211 1 5.147e+01 3.258e+00 1.603e+00 0.34 0.32 0.34
212 1 4.968e+01 4.989e+00 1.546e+00 0.34 0.33 0.33
213 1 5.335e+01 3.197e+00 -2.710e-01 0.34 0.32 0.35
214 2 5.506e+01 5.099e+00 -1.944e-01 0.34 0.32 0.34
215 1 5.510e+01 3.279e+00 1.409e+00 0.34 0.32 0.34
216 2 5.326e+01 5.145e+00 1.601e+00 0.34 0.32 0.34
217 2 5.689e+01 3.202e+00 -2.806e-01 0.34 0.32 0.34
218 2 5.858e+01 4.947e+00 -2.552e-01 0.34 0.32 0.34
219 3 5.849e+01 3.378e+00 1.401e+00 0.34 0.31 0.35
220 3 5.676e+01 5.206e+00 1.562e+00 0.34 0.32 0.34
221 1 6.045e+01 3.357e+00 -2.388e-01 0.34 0.32 0.35
222 2 6.214e+01 5.080e+00 -2.212e-01 0.34 0.32 0.34
223 2 6.225e+01 3.226e+00 1.581e+00 0.34 0.32 0.35
224 3 6.048e+01 5.036e+00 1.497e+00 0.34 0.32 0.34
225 3 6.387e+01 3.195e+00 -2.087e-01 0.33 0.32 0.35
226 1 6.578e+01 4.980e+00 -2.429e-01 0.33 0.32 0.35
227 2 6.578e+01 3.207e+00 1.469e+00 0.34 0.32 0.35
228 1 6.384e+01 5.080e+00 1.542e+00 0.33 0.32 0.35
229 2 6.754e+01 3.198e+00 -2.256e-01 0.32 0.32 0.36
230 1 6.922e+01 5.111e+00 -2.252e-01 0.33 0.33 0.35
231 1 6.925e+01 3.414e+00 1.615e+00 0.33 0.32 0.35
232 3 6.762e+01 5.092e+00 1.580e+00 0.32 0.33 0.35
233 3 7.114e+01 3.399e+00 -2.517e-01 0.32 0.33 0.35
234 3 7.289e+01 4.949e+00 -2.172e-01 0.33 0.33 0.34
235 2 7.302e+01 3.350e+00 1.528e+00 0.32 0.33 0.34
236 1 7.121e+01 5.002e+00 1.600e+00 0.32 0.33 0.35
237 2 7.485e+01 3.314e+00 -2.872e-01 0.33 0.33 0.34
238 1 7.640e+01 5.114e+00 -2.395e-01 0.33 0.33 0.34
239 3 7.654e+01 3.289e+00 1.445e+00 0.33 0.33 0.34
240 1 7.468e+01 5.148e+00 1.441e+00 0.33 0.33 0.34
241 1 7.825e+01 3.317e+00 -2.619e-01 0.32 0.34 0.34
242 2 8.002e+01 4.962e+00 -8.204e-02 0.33 0.34 0.34
243 2 8.016e+01 3.233e+00 1.479e+00 0.33 0.34 0.33
244 1 7.829e+01 5.240e+00 1.604e+00 0.33 0.34 0.34
245 1 8.179e+01 3.148e+00 -3.016e-01 0.32 0.34 0.34
246 1 8.377e+01 5.052e+00 -1.851e-01 0.33 0.34 0.34
247 1 8.372e+01 3.237e+00 1.575e+00 0.32 0.34 0.33
248 3 8.193e+01 5.018e+00 1.652e+00 0.33 0.33 0.34
249 1 8.547e+01 3.237e+00 -2.658e-01 0.33 0.34 0.33
250 3 8.724e+01 5.153e+00 -3.858e-01 0.33 0.34 0.33
251 3 8.735e+01 3.267e+00 1.347e+00 0.33 0.34 0.33
252 1 8.543e+01 5.011e+00 1.572e+00 0.34 0.34 0.33
253 1 8.913e+01 3.177e+00 -2.373e-01 0.33 0.34 0.33
254 2 9.081e+01 5.087e+00 -2.991e-01 0.33 0.34 0.33
255 2 9.081e+01 3.173e+00 1.496e+00 0.33 0.34 0.33
256 2 8.907e+01 5.116e+00 1.414e+00 0.33 0.34 0.33
257 1 9.256e+01 3.281e+00 -1.834e-01 0.33 0.34 0.33
258 2 9.435e+01 4.964e+00 -4.415e-01 0.33 0.34 0.33
259 3 9.427e+01 3.339e+00 1.550e+00 0.33 0.34 0.33
260 2 9.258e+01 5.094e+00 1.557e+00 0.33 0.34 0.33
261 3 9.623e+01 3.277e+00 -1.886e-01 0.34 0.34 0.32
262 3 9.808e+01 5.082e+00 -2.260e-01 0.33 0.34 0.33
263 2 9.787e+01 3.397e+00 1.451e+00 0.34 0.34 0.32
264 2 9.615e+01 5.324e+00 1.492e+00 0.34 0.34 0.32
265 1 9.979e+01 3.274e+00 -1.913e-01 0.32 0.35 0.33
266 1 1.014e+02 5.179e+00 -1.878e-01 0.32 0.34 0.33
267 2 1.016e+02 3.432e+00 1.498e+00 0.33 0.34 0.33
268 3 9.968e+01 4.972e+00 1.692e+00 0.33 0.34 0.33
269 3 1.032e+02 3.337e+00 -3.119e-01 0.32 0.34 0.33
270 1 1.051e+02 5.168e+00 -8.593e-02 0.32 0.34 0.34
271 3 1.050e+02 3.179e+00 1.533e+00 0.32 0.34 0.34
272 3 1.034e+02 5.235e+00 1.685e+00 0.32 0.34 0.33
273 2 1.067e+02 3.284e+00 -2.306e-01 0.32 0.34 0.34
274 1 1.087e+02 5.052e+00 -1.880e-01 0.31 0.35 0.34
275 2 1.086e+02 3.208e+00 1.536e+00 0.32 0.34 0.34
276 1 1.070e+02 5.066e+00 1.626e+00 0.32 0.34 0.34
277 3 1.105e+02 3.085e+00 -2.530e-01 0.31 0.35 0.34
278 1 1.122e+02 4.967e+00 -7.966e-02 0.31 0.35 0.34
279 2 1.123e+02 3.168e+00 1.598e+00 0.31 0.35 0.34
280 3 1.105e+02 5.150e+00 1.568e+00 0.31 0.35 0.34
281 2 1.140e+02 3.197e+00 -3.984e-01 0.31 0.34 0.35
282 3 1.158e+02 5.048e+00 -3.863e-02 0.31 0.34 0.35
283 3 1.159e+02 3.365e+00 1.480e+00 0.32 0.34 0.35
284 2 1.140e+02 5.043e+00 1.513e+00 0.31 0.34 0.35
285 2 1.176e+02 3.203e+00 -3.208e-01 0.31 0.34 0.34
286 1 1.194e+02 5.034e+00 -2.829e-01 0.32 0.35 0.34
287 2 1.192e+02 3.315e+00 1.528e+00 0.32 0.34 0.34
288 2 1.177e+02 5.029e+00 1.552e+00 0.32 0.34 0.35
289 1 1.213e+02 3.271e+00 -2.104e-01 0.32 0.34 0.34
290 2 1.231e+02 5.088e+00 -1.846e-01 0.32 0.34 0.34
291 3 1.230e+02 3.362e+00 1.585e+00 0.32 0.34 0.34
292 1 1.213e+02 5.004e+00 1.488e+00 0.32 0.34 0.34
293 2 1.247e+02 3.433e+00 -6.450e-02 0.32 0.34 0.34
294 2 1.266e+02 5.105e+00 -2.494e-01 0.32 0.33 0.35
295 1 1.265e+02 3.308e+00 1.436e+00 0.32 0.33 0.34
296 3 1.249e+02 5.044e+00 1.566e+00 0.32 0.33 0.34
297 2 1.284e+02 3.392e+00 -3.006e-01 0.32 0.33 0.34
298 2 1.302e+02 5.188e+00 -3.398e-01 0.33 0.33 0.34
299 3 1.302e+02 3.433e+00 1.430e+00 0.32 0.33 0.34
300 3 1.284e+02 5.145e+00 1.313e+00 0.32 0.33 0.34
301 1 1.319e+02 3.452e+00 -2.492e-01 0.33 0.34 0.34
302 1 1.338e+02 5.302e+00 -3.071e-01 0.33 0.34 0.33
303 2 1.339e+02 3.394e+00 1.486e+00 0.33 0.34 0.33
304 3 1.320e+02 5.140e+00 1.443e+00 0.32 0.34 0.33
305 3 -6.130e-02 6.936e+00 -2.764e-01 0.33 0.34 0.33
306 1 1.607e+00 8.877e+00 -9.254e-02 0.33 0.34 0.33
307 1 1.569e+00 6.660e+00 1.585e+00 0.33 0.34 0.32
308 3 -1.871e-01 8.648e+00 1.442e+00 0.33 0.34 0.33
309 2 3.272e+00 6.983e+00 -2.440e-01 0.33 0.34 0.33
310 3 5.037e+00 8.540e+00 -2.062e-01 0.33 0.34 0.33
311 1 5.177e+00 6.751e+00 1.347e+00 0.33 0.34 0.33
312 1 3.375e+00 8.645e+00 1.532e+00 0.34 0.34 0.33
313 2 6.856e+00 6.808e+00 -3.073e-01 0.33 0.34 0.33
314 3 8.594e+00 8.770e+00 -1.379e-01 0.33 0.34 0.33
315 1 8.568e+00 6.917e+00 1.578e+00 0.33 0.34 0.32
316 3 6.837e+00 8.662e+00 1.655e+00 0.33 0.34 0.33
317 3 1.041e+01 6.908e+00 -2.657e-01 0.34 0.34 0.32
318 1 1.209e+01 8.689e+00 -3.210e-01 0.34 0.34 0.32
319 3 1.231e+01 6.911e+00 1.571e+00 0.34 0.33 0.33
320 1 1.039e+01 8.659e+00 1.489e+00 0.34 0.34 0.32
321 2 1.383e+01 6.932e+00 -2.801e-01 0.35 0.33 0.32
322 1 1.570e+01 8.726e+00 -2.788e-01 0.35 0.33 0.32
323 3 1.569e+01 6.919e+00 1.456e+00 0.34 0.33 0.33
324 3 1.391e+01 8.732e+00 1.549e+00 0.34 0.33 0.33
325 2 1.750e+01 6.851e+00 -1.494e-01 0.34 0.33 0.33
326 3 1.913e+01 8.665e+00 -2.674e-01 0.34 0.33 0.33
327 2 1.938e+01 6.839e+00 1.415e+00 0.34 0.33 0.33
328 3 1.752e+01 8.695e+00 1.630e+00 0.35 0.33 0.32
329 3 2.109e+01 6.806e+00 -1.986e-01 0.34 0.33 0.32
330 1 2.294e+01 8.674e+00 -2.878e-01 0.34 0.33 0.33
331 2 2.305e+01 6.812e+00 1.477e+00 0.34 0.33 0.33
332 3 2.129e+01 8.596e+00 1.437e+00 0.34 0.33 0.32
333 3 2.461e+01 6.726e+00 -3.382e-01 0.34 0.33 0.32
334 1 2.637e+01 8.588e+00 -1.018e-01 0.34 0.34 0.32
335 1 2.641e+01 6.690e+00 1.710e+00 0.34 0.33 0.33
336 1 2.465e+01 8.564e+00 1.668e+00 0.34 0.33 0.33
337 1 2.829e+01 6.859e+00 -1.694e-01 0.34 0.33 0.32
338 2 3.010e+01 8.681e+00 -3.661e-01 0.34 0.33 0.33
339 1 3.011e+01 6.880e+00 1.548e+00 0.34 0.33 0.33
340 3 2.811e+01 8.571e+00 1.461e+00 0.34 0.33 0.33
341 1 3.193e+01 6.868e+00 -2.686e-01 0.34 0.34 0.33
342 2 3.354e+01 8.683e+00 -4.585e-01 0.34 0.33 0.33
343 1 3.363e+01 6.856e+00 1.547e+00 0.34 0.33 0.33
344 1 3.176e+01 8.722e+00 1.558e+00 0.34 0.33 0.33
345 2 3.527e+01 6.927e+00 -3.284e-01 0.34 0.33 0.33
346 2 3.716e+01 8.594e+00 -4.269e-01 0.34 0.33 0.33
347 1 3.721e+01 6.753e+00 1.418e+00 0.34 0.33 0.33
348 2 3.536e+01 8.604e+00 1.561e+00 0.34 0.33 0.33
349 1 3.899e+01 6.777e+00 -2.129e-01 0.34 0.33 0.33
350 1 4.055e+01 8.739e+00 -2.744e-01 0.34 0.32 0.33
351 1 4.072e+01 6.894e+00 1.555e+00 0.34 0.33 0.33
352 1 3.880e+01 8.637e+00 1.623e+00 0.34 0.33 0.33
353 2 4.248e+01 6.868e+00 -1.898e-01 0.34 0.32 0.34
354 3 4.420e+01 8.610e+00 -3.051e-01 0.34 0.33 0.33
355 2 4.435e+01 6.777e+00 1.411e+00 0.34 0.33 0.34
356 3 4.261e+01 8.586e+00 1.509e+00 0.35 0.33 0.33
357 1 4.609e+01 6.769e+00 -1.563e-01 0.34 0.33 0.33
358 1 4.787e+01 8.578e+00 -1.700e-01 0.34 0.33 0.34
359 1 4.791e+01 6.659e+00 1.595e+00 0.33 0.33 0.33
360 3 4.590e+01 8.727e+00 1.381e+00 0.34 0.33 0.33
361 1 4.964e+01 6.756e+00 -3.015e-01 0.33 0.33 0.33
362 1 5.157e+01 8.600e+00 -3.809e-01 0.34 0.33 0.33
363 3 5.149e+01 6.666e+00 1.503e+00 0.34 0.33 0.34
364 1 4.979e+01 8.562e+00 1.400e+00 0.33 0.33 0.34
365 3 5.339e+01 6.961e+00 -3.658e-01 0.34 0.33 0.33
366 3 5.513e+01 8.877e+00 -2.256e-01 0.34 0.33 0.33
367 1 5.526e+01 7.045e+00 1.626e+00 0.34 0.32 0.34
368 1 5.325e+01 8.554e+00 1.410e+00 0.34 0.33 0.33
369 1 5.697e+01 6.937e+00 -3.928e-01 0.34 0.33 0.33
370 3 5.866e+01 8.759e+00 -4.149e-01 0.34 0.33 0.33
371 1 5.865e+01 6.874e+00 1.545e+00 0.34 0.32 0.34
372 3 5.709e+01 8.855e+00 1.584e+00 0.33 0.33 0.34
373 3 6.047e+01 6.881e+00 -1.216e-01 0.34 0.32 0.34
374 1 6.225e+01 8.638e+00 -2.965e-01 0.34 0.32 0.34
375 1 6.213e+01 6.928e+00 1.490e+00 0.33 0.32 0.35
376 3 6.041e+01 8.626e+00 1.496e+00 0.34 0.32 0.34
377 2 6.408e+01 6.811e+00 -3.079e-01 0.34 0.32 0.34
378 2 6.565e+01 8.709e+00 -2.253e-01 0.34 0.32 0.34
379 2 6.585e+01 6.791e+00 1.496e+00 0.33 0.32 0.34
380 3 6.407e+01 8.633e+00 1.610e+00 0.34 0.32 0.34
381 3 6.753e+01 6.901e+00 -2.347e-01 0.33 0.32 0.34
382 3 6.936e+01 8.682e+00 -3.839e-01 0.33 0.33 0.34
383 2 6.927e+01 6.948e+00 1.514e+00 0.33 0.33 0.34
384 3 6.759e+01 8.681e+00 1.329e+00 0.33 0.33 0.34
385 1 7.117e+01 6.886e+00 -2.546e-01 0.33 0.33 0.34
386 2 7.301e+01 8.743e+00 -3.345e-01 0.33 0.33 0.34
387 1 7.286e+01 6.955e+00 1.536e+00 0.33 0.33 0.34
388 2 7.118e+01 8.793e+00 1.412e+00 0.33 0.33 0.34
389 2 7.469e+01 6.771e+00 -4.515e-01 0.33 0.33 0.34
390 3 7.649e+01 8.537e+00 -2.903e-01 0.33 0.34 0.33
391 1 7.658e+01 6.836e+00 1.603e+00 0.33 0.33 0.34
392 1 7.478e+01 8.502e+00 1.341e+00 0.33 0.33 0.34
393 1 7.829e+01 6.839e+00 -2.584e-01 0.32 0.34 0.34
394 2 8.022e+01 8.548e+00 -1.863e-01 0.32 0.34 0.34
395 1 8.008e+01 6.739e+00 1.495e+00 0.33 0.33 0.34
396 2 7.841e+01 8.717e+00 1.613e+00 0.33 0.33 0.34
397 3 8.184e+01 6.599e+00 -2.582e-01 0.33 0.34 0.34
398 3 8.369e+01 8.661e+00 -1.265e-01 0.33 0.34 0.33
399 1 8.362e+01 6.863e+00 1.447e+00 0.33 0.34 0.34
400 3 8.198e+01 8.563e+00 1.548e+00 0.33 0.33 0.34
401 3 8.554e+01 6.894e+00 -1.537e-01 0.33 0.34 0.33
402 1 8.727e+01 8.579e+00 -6.316e-02 0.33 0.33 0.33
403 3 8.733e+01 6.729e+00 1.843e+00 0.33 0.34 0.33
404 2 8.538e+01 8.600e+00 1.756e+00 0.33 0.33 0.33
405 3 8.907e+01 6.993e+00 -4.431e-01 0.33 0.34 0.33
406 3 9.079e+01 8.600e+00 -4.320e-01 0.33 0.33 0.33
407 1 9.068e+01 7.050e+00 1.513e+00 0.34 0.33 0.33
408 1 8.899e+01 8.603e+00 1.659e+00 0.34 0.33 0.33
409 2 9.263e+01 6.837e+00 -1.958e-01 0.33 0.34 0.33
410 1 9.447e+01 8.800e+00 -3.174e-01 0.33 0.33 0.33
411 3 9.440e+01 6.855e+00 1.362e+00 0.33 0.34 0.33
412 2 9.259e+01 8.791e+00 1.485e+00 0.34 0.33 0.33
413 3 9.619e+01 6.997e+00 -1.219e-01 0.33 0.34 0.33
414 3 9.798e+01 8.622e+00 -2.167e-01 0.33 0.34 0.33
415 1 9.797e+01 6.944e+00 1.578e+00 0.34 0.34 0.33
416 2 9.625e+01 8.734e+00 1.604e+00 0.33 0.34 0.33
417 2 9.967e+01 6.888e+00 -2.659e-01 0.33 0.34 0.33
418 1 1.015e+02 8.653e+00 -3.462e-01 0.32 0.34 0.34
419 2 1.013e+02 6.940e+00 1.716e+00 0.33 0.34 0.33
420 3 9.990e+01 8.744e+00 1.530e+00 0.33 0.33 0.33
421 2 1.033e+02 6.712e+00 -3.548e-01 0.32 0.34 0.34
422 2 1.050e+02 8.610e+00 -2.903e-01 0.32 0.34 0.34
423 2 1.051e+02 7.029e+00 1.678e+00 0.32 0.34 0.34
424 1 1.032e+02 8.563e+00 1.409e+00 0.32 0.34 0.34
425 1 1.068e+02 6.838e+00 -1.980e-01 0.31 0.35 0.34
426 2 1.088e+02 8.611e+00 -2.929e-01 0.31 0.35 0.34
427 1 1.087e+02 6.805e+00 1.504e+00 0.32 0.34 0.35
428 3 1.067e+02 8.773e+00 1.460e+00 0.32 0.34 0.34
429 2 1.105e+02 6.946e+00 -2.491e-01 0.31 0.35 0.35
430 1 1.123e+02 8.782e+00 -3.843e-01 0.31 0.34 0.35
431 2 1.123e+02 7.138e+00 1.510e+00 0.31 0.34 0.35
432 3 1.104e+02 8.753e+00 1.327e+00 0.31 0.35 0.35
433 2 1.141e+02 6.919e+00 -1.851e-01 0.31 0.34 0.35
434 3 1.157e+02 8.764e+00 -2.628e-01 0.31 0.34 0.35
435 1 1.158e+02 6.790e+00 1.559e+00 0.31 0.34 0.35
436 3 1.140e+02 8.729e+00 1.470e+00 0.31 0.35 0.34
437 3 1.177e+02 6.766e+00 -8.031e-02 0.32 0.34 0.34
438 3 1.195e+02 8.623e+00 -1.618e-01 0.31 0.34 0.35
439 3 1.195e+02 6.849e+00 1.642e+00 0.31 0.34 0.34
440 3 1.176e+02 8.575e+00 1.522e+00 0.31 0.34 0.35
441 1 1.212e+02 6.743e+00 -2.913e-01 0.32 0.34 0.35
442 2 1.230e+02 8.603e+00 -2.496e-01 0.31 0.34 0.35
443 2 1.231e+02 6.788e+00 1.580e+00 0.32 0.33 0.35
444 3 1.213e+02 8.671e+00 1.417e+00 0.31 0.34 0.34
445 1 1.248e+02 6.867e+00 -1.750e-01 0.32 0.33 0.35
446 2 1.264e+02 8.753e+00 -2.445e-01 0.32 0.34 0.34
447 3 1.268e+02 6.796e+00 1.490e+00 0.32 0.33 0.35
448 1 1.247e+02 8.598e+00 1.698e+00 0.32 0.34 0.34
449 2 1.283e+02 6.977e+00 -2.018e-01 0.32 0.34 0.34
450 2 1.302e+02 8.758e+00 -1.037e-01 0.33 0.33 0.34
451 2 1.302e+02 6.965e+00 1.398e+00 0.32 0.34 0.34
452 2 1.283e+02 8.748e+00 1.532e+00 0.32 0.34 0.34
453 3 1.318e+02 7.087e+00 -1.217e-01 0.33 0.34 0.34
454 1 1.337e+02 8.565e+00 -2.311e-01 0.33 0.34 0.33
455 3 1.337e+02 6.830e+00 1.597e+00 0.33 0.34 0.33
456 2 1.319e+02 8.688e+00 1.564e+00 0.32 0.34 0.34
457 2 -2.202e-01 1.066e+01 -3.172e-01 0.33 0.34 0.33
458 3 1.432e+00 1.222e+01 -1.827e-01 0.33 0.34 0.33
459 3 1.452e+00 1.049e+01 1.760e+00 0.33 0.34 0.33
460 2 -2.701e-01 1.241e+01 1.540e+00 0.33 0.34 0.33
461 1 3.361e+00 1.053e+01 -1.868e-01 0.33 0.34 0.33
462 3 5.038e+00 1.234e+01 -2.555e-01 0.33 0.34 0.33
463 1 5.066e+00 1.040e+01 1.472e+00 0.33 0.34 0.33
464 3 3.149e+00 1.237e+01 1.609e+00 0.33 0.34 0.33
465 3 6.855e+00 1.025e+01 -2.128e-01 0.33 0.34 0.33
466 2 8.607e+00 1.225e+01 -9.822e-02 0.33 0.34 0.33
467 1 8.601e+00 1.042e+01 1.703e+00 0.33 0.34 0.33
468 1 6.738e+00 1.209e+01 1.562e+00 0.33 0.34 0.33
469 2 1.026e+01 1.044e+01 -2.721e-01 0.34 0.34 0.32
470 3 1.211e+01 1.238e+01 -2.540e-01 0.33 0.34 0.32
471 2 1.224e+01 1.046e+01 1.419e+00 0.34 0.34 0.32
472 2 1.061e+01 1.215e+01 1.548e+00 0.34 0.34 0.32
473 1 1.404e+01 1.052e+01 -2.345e-01 0.35 0.34 0.32
474 2 1.590e+01 1.224e+01 -6.636e-02 0.35 0.34 0.32
475 2 1.572e+01 1.020e+01 1.708e+00 0.35 0.33 0.33
476 1 1.399e+01 1.225e+01 1.510e+00 0.34 0.33 0.33
477 1 1.745e+01 1.042e+01 -1.456e-01 0.34 0.33 0.32
478 1 1.926e+01 1.221e+01 -2.617e-01 0.34 0.33 0.32
479 1 1.950e+01 1.049e+01 1.534e+00 0.34 0.33 0.33
480 1 1.762e+01 1.220e+01 1.627e+00 0.34 0.33 0.32
481 3 2.135e+01 1.056e+01 -2.488e-01 0.34 0.33 0.32
482 2 2.287e+01 1.229e+01 -2.009e-01 0.34 0.33 0.33
483 2 2.294e+01 1.044e+01 1.456e+00 0.34 0.33 0.33
484 2 2.115e+01 1.234e+01 1.675e+00 0.34 0.34 0.32
485 3 2.458e+01 1.047e+01 -2.328e-01 0.34 0.33 0.33
486 3 2.637e+01 1.230e+01 -1.911e-01 0.34 0.34 0.33
487 2 2.638e+01 1.057e+01 1.510e+00 0.34 0.34 0.33
488 3 2.458e+01 1.237e+01 1.511e+00 0.34 0.34 0.32
489 2 2.817e+01 1.046e+01 -2.917e-01 0.34 0.34 0.33
490 1 3.012e+01 1.225e+01 -2.504e-01 0.34 0.33 0.32
491 1 2.993e+01 1.040e+01 1.433e+00 0.33 0.34 0.33
492 2 2.825e+01 1.233e+01 1.612e+00 0.34 0.34 0.32
493 3 3.200e+01 1.058e+01 -3.333e-01 0.34 0.33 0.33
494 3 3.357e+01 1.217e+01 -2.362e-01 0.34 0.33 0.33
495 2 3.354e+01 1.049e+01 1.528e+00 0.34 0.33 0.33
496 2 3.171e+01 1.214e+01 1.698e+00 0.34 0.34 0.32
497 1 3.535e+01 1.037e+01 -2.919e-01 0.34 0.33 0.33
498 3 3.719e+01 1.227e+01 -3.168e-01 0.33 0.33 0.33
499 1 3.712e+01 1.043e+01 1.551e+00 0.34 0.33 0.33
500 1 3.525e+01 1.222e+01 1.502e+00 0.34 0.33 0.33
501 1 3.897e+01 1.040e+01 -3.581e-01 0.34 0.32 0.33
502 2 4.075e+01 1.234e+01 -2.889e-01 0.34 0.33 0.33
503 3 4.079e+01 1.049e+01 1.511e+00 0.34 0.33 0.33
504 2 3.908e+01 1.218e+01 1.465e+00 0.34 0.33 0.33
505 3 4.240e+01 1.047e+01 -4.209e-01 0.34 0.33 0.33
506 1 4.441e+01 1.214e+01 -2.995e-01 0.34 0.33 0.33
507 1 4.423e+01 1.048e+01 1.429e+00 0.34 0.33 0.33
508 2 4.262e+01 1.227e+01 1.438e+00 0.34 0.33 0.33
509 1 4.618e+01 1.042e+01 -3.453e-01 0.34 0.33 0.33
510 1 4.798e+01 1.214e+01 -2.955e-01 0.33 0.33 0.34
511 2 4.784e+01 1.040e+01 1.624e+00 0.33 0.33 0.33
512 3 4.615e+01 1.215e+01 1.531e+00 0.34 0.33 0.33
513 3 4.954e+01 1.040e+01 -1.585e-01 0.33 0.33 0.34
514 1 5.151e+01 1.214e+01 -2.291e-01 0.34 0.33 0.33
515 2 5.147e+01 1.045e+01 1.308e+00 0.34 0.33 0.34
516 3 4.978e+01 1.237e+01 1.590e+00 0.34 0.33 0.33
517 1 5.336e+01 1.040e+01 -2.542e-01 0.34 0.33 0.33
518 2 5.512e+01 1.234e+01 -3.836e-01 0.34 0.33 0.33
519 3 5.529e+01 1.059e+01 1.473e+00 0.34 0.33 0.34
520 3 5.319e+01 1.228e+01 1.488e+00 0.34 0.33 0.33
521 2 5.689e+01 1.055e+01 -3.052e-01 0.34 0.33 0.33
522 2 5.863e+01 1.243e+01 -5.298e-01 0.34 0.32 0.33
523 3 5.867e+01 1.055e+01 1.253e+00 0.34 0.33 0.34
524 2 5.700e+01 1.238e+01 1.432e+00 0.34 0.33 0.33
525 1 6.031e+01 1.050e+01 -3.573e-01 0.34 0.33 0.34
526 1 6.223e+01 1.225e+01 -1.883e-01 0.34 0.32 0.34
527 2 6.214e+01 1.046e+01 1.465e+00 0.33 0.32 0.34
528 3 6.042e+01 1.237e+01 1.259e+00 0.34 0.32 0.34
529 1 6.400e+01 1.053e+01 -3.338e-01 0.34 0.32 0.34
530 2 6.573e+01 1.232e+01 -3.359e-01 0.34 0.32 0.34
531 3 6.586e+01 1.049e+01 1.381e+00 0.34 0.32 0.34
532 1 6.401e+01 1.218e+01 1.550e+00 0.34 0.32 0.34
533 1 6.747e+01 1.054e+01 -3.355e-01 0.34 0.33 0.34
534 1 6.939e+01 1.223e+01 -3.345e-01 0.34 0.33 0.33
535 3 6.946e+01 1.045e+01 1.423e+00 0.34 0.33 0.33
536 2 6.753e+01 1.239e+01 1.522e+00 0.34 0.32 0.34
537 3 7.126e+01 1.048e+01 -3.459e-01 0.34 0.33 0.33
538 2 7.298e+01 1.230e+01 -3.637e-01 0.34 0.33 0.33
539 3 7.294e+01 1.058e+01 1.403e+00 0.34 0.33 0.33
540 3 7.105e+01 1.221e+01 1.253e+00 0.34 0.33 0.33
541 2 7.480e+01 1.055e+01 -4.309e-01 0.34 0.33 0.33
542 1 7.653e+01 1.234e+01 -2.617e-01 0.33 0.33 0.33
543 1 7.649e+01 1.045e+01 1.488e+00 0.33 0.34 0.33
544 1 7.458e+01 1.217e+01 1.437e+00 0.34 0.33 0.33
545 1 7.827e+01 1.038e+01 -2.929e-01 0.33 0.33 0.34
546 1 8.009e+01 1.209e+01 -2.778e-01 0.34 0.33 0.33
547 1 8.010e+01 1.045e+01 1.666e+00 0.33 0.33 0.34
548 1 7.826e+01 1.220e+01 1.526e+00 0.34 0.33 0.33
549 2 8.192e+01 1.034e+01 -8.268e-02 0.33 0.33 0.33
550 2 8.370e+01 1.228e+01 -3.502e-01 0.34 0.33 0.33
551 2 8.375e+01 1.035e+01 1.497e+00 0.33 0.33 0.33
552 1 8.184e+01 1.229e+01 1.444e+00 0.33 0.33 0.34
553 2 8.553e+01 1.032e+01 -2.777e-01 0.33 0.33 0.34
554 1 8.728e+01 1.225e+01 -2.341e-01 0.34 0.33 0.33
555 3 8.717e+01 1.038e+01 1.594e+00 0.34 0.33 0.33
556 2 8.543e+01 1.214e+01 1.606e+00 0.33 0.33 0.33
557 1 8.906e+01 1.041e+01 -1.713e-01 0.33 0.33 0.34
558 3 9.082e+01 1.216e+01 -4.542e-02 0.33 0.33 0.33
559 3 9.091e+01 1.040e+01 1.393e+00 0.34 0.33 0.34
560 2 8.902e+01 1.222e+01 1.677e+00 0.33 0.33 0.34
561 1 9.253e+01 1.052e+01 -3.100e-01 0.33 0.34 0.34
562 1 9.438e+01 1.238e+01 -2.364e-01 0.33 0.33 0.34
563 3 9.424e+01 1.046e+01 1.559e+00 0.33 0.33 0.33
564 2 9.259e+01 1.227e+01 1.562e+00 0.33 0.33 0.34
565 3 9.613e+01 1.063e+01 -3.648e-01 0.33 0.34 0.34
566 1 9.794e+01 1.224e+01 -2.979e-01 0.32 0.34 0.34
567 3 9.826e+01 1.054e+01 1.542e+00 0.33 0.34 0.34
568 1 9.615e+01 1.216e+01 1.506e+00 0.33 0.34 0.34
569 2 9.985e+01 1.042e+01 -4.479e-01 0.32 0.34 0.34
570 1 1.017e+02 1.217e+01 -3.174e-01 0.32 0.34 0.34
571 2 1.016e+02 1.046e+01 1.389e+00 0.32 0.34 0.34
572 2 9.978e+01 1.218e+01 1.371e+00 0.32 0.34 0.34
573 2 1.033e+02 1.056e+01 -5.543e-01 0.31 0.34 0.35
575 1 1.049e+02 1.039e+01 1.548e+00 0.32 0.34 0.34
577 2 1.069e+02 1.037e+01 -2.177e-01 0.31 0.35 0.34
579 1 1.087e+02 1.034e+01 1.528e+00 0.31 0.35 0.34